
     Program PWSCF v.6.4.1 starts on  7Oct2020 at  2: 2:29 

     This program is part of the open-source Quantum ESPRESSO suite
     for quantum simulation of materials; please cite
         "P. Giannozzi et al., J. Phys.:Condens. Matter 21 395502 (2009);
         "P. Giannozzi et al., J. Phys.:Condens. Matter 29 465901 (2017);
          URL http://www.quantum-espresso.org", 
     in publications or presentations arising from this work. More details at
     http://www.quantum-espresso.org/quote

     Parallel version (MPI), running on     1 processors

     MPI processes distributed on     1 nodes
     Waiting for input...
     Reading input from standard input
Warning: card &IONS ignored
Warning: card / ignored
Warning: card &CELL ignored
Warning: card / ignored

     Current dimensions of program PWSCF are:
     Max number of different atomic species (ntypx) = 10
     Max number of k-points (npk) =  40000
     Max angular momentum in pseudopotentials (lmaxx) =  3

     Subspace diagonalization in iterative solution of the eigenvalue problem:
     a serial algorithm will be used

     Message from routine setup:
     DEPRECATED: symmetry with ibrav=0, use correct ibrav instead

     G-vector sticks info
     --------------------
     sticks:   dense  smooth     PW     G-vecs:    dense   smooth      PW
     Sum         955     955    283                19579    19579    3119



     bravais-lattice index     =            0
     lattice parameter (alat)  =       7.6014  a.u.
     unit-cell volume          =     310.5743 (a.u.)^3
     number of atoms/cell      =            2
     number of atomic types    =            1
     number of electrons       =         8.00
     number of Kohn-Sham states=            4
     kinetic-energy cutoff     =      60.0000  Ry
     charge density cutoff     =     240.0000  Ry
     convergence threshold     =      1.0E-07
     mixing beta               =       0.5000
     number of iterations used =            8  plain     mixing
     Exchange-correlation      = SLA PZ NOGX NOGC ( 1  1  0  0 0 0)

     celldm(1)=   7.601398  celldm(2)=   0.000000  celldm(3)=   0.000000
     celldm(4)=   0.000000  celldm(5)=   0.000000  celldm(6)=   0.000000

     crystal axes: (cart. coord. in units of alat)
               a(1) = (   0.000000   0.707107   0.707107 )  
               a(2) = (   0.707107   0.000000   0.707107 )  
               a(3) = (   0.707107   0.707107   0.000000 )  

     reciprocal axes: (cart. coord. in units 2 pi/alat)
               b(1) = ( -0.707107  0.707107  0.707107 )  
               b(2) = (  0.707107 -0.707107  0.707107 )  
               b(3) = (  0.707107  0.707107 -0.707107 )  


     PseudoPot. # 1 for Ge read from file:
     /home/modeler/qe_pseudo/Ge.pz-bhs.UPF
     MD5 check sum: 4f8fee77de72fb640d24dcbf01bda005
     Pseudo is Norm-conserving, Zval =  4.0
     Generated by new atomic code, or converted to UPF format
     Using radial grid of  291 points,  2 beta functions with: 
                l(1) =   0
                l(2) =   1

     atomic species   valence    mass     pseudopotential
        Ge             4.00    72.63000     Ge( 1.00)

     24 Sym. Ops. (no inversion) found



   Cartesian axes

     site n.     atom                  positions (alat units)
         1           Ge  tau(   1) = (   0.0000000   0.0000000   0.0000000  )
         2           Ge  tau(   2) = (   0.3535524   0.3535524   0.3535524  )

     number of k points=     8
                       cart. coord. in units 2pi/alat
        k(    1) = (   0.0000000   0.0000000   0.0000000), wk =   0.0312500
        k(    2) = (   0.1767767   0.1767767  -0.1767767), wk =   0.2500000
        k(    3) = (  -0.3535534  -0.3535534   0.3535534), wk =   0.1250000
        k(    4) = (   0.3535534   0.0000000   0.0000000), wk =   0.1875000
        k(    5) = (  -0.1767767  -0.5303301   0.5303301), wk =   0.7500000
        k(    6) = (   0.0000000  -0.3535534   0.3535534), wk =   0.3750000
        k(    7) = (  -0.7071068   0.0000000   0.0000000), wk =   0.0937500
        k(    8) = (  -0.7071068   0.3535534   0.0000000), wk =   0.1875000

     Dense  grid:    19579 G-vectors     FFT dimensions: (  40,  40,  40)

     Estimated max dynamical RAM per process >      15.50 MB

     Initial potential from superposition of free atoms

     starting charge    6.99990, renormalised to    8.00000
     Starting wfcs are    8 randomized atomic wfcs

     total cpu time spent up to now is        0.3 secs

     Self-consistent Calculation

     iteration #  1     ecut=    60.00 Ry     beta= 0.50
     Davidson diagonalization with overlap
     ethr =  1.00E-02,  avg # of iterations =  1.2

     Threshold (ethr) on eigenvalues was too large:
     Diagonalizing with lowered threshold

     Davidson diagonalization with overlap
     ethr =  3.15E-04,  avg # of iterations =  2.5

     total cpu time spent up to now is        0.8 secs

     total energy              =     -15.99573662 Ry
     Harris-Foulkes estimate   =     -15.99961727 Ry
     estimated scf accuracy    <       0.02724581 Ry

     iteration #  2     ecut=    60.00 Ry     beta= 0.50
     Davidson diagonalization with overlap
     ethr =  3.41E-04,  avg # of iterations =  1.0

     total cpu time spent up to now is        1.0 secs

     total energy              =     -15.99463624 Ry
     Harris-Foulkes estimate   =     -15.99586355 Ry
     estimated scf accuracy    <       0.00647324 Ry

     iteration #  3     ecut=    60.00 Ry     beta= 0.50
     Davidson diagonalization with overlap
     ethr =  8.09E-05,  avg # of iterations =  1.0

     total cpu time spent up to now is        1.2 secs

     total energy              =     -15.99472582 Ry
     Harris-Foulkes estimate   =     -15.99473073 Ry
     estimated scf accuracy    <       0.00000936 Ry

     iteration #  4     ecut=    60.00 Ry     beta= 0.50
     Davidson diagonalization with overlap
     ethr =  1.17E-07,  avg # of iterations =  4.1

     total cpu time spent up to now is        1.6 secs

     total energy              =     -15.99475721 Ry
     Harris-Foulkes estimate   =     -15.99475729 Ry
     estimated scf accuracy    <       0.00000040 Ry

     iteration #  5     ecut=    60.00 Ry     beta= 0.50
     Davidson diagonalization with overlap
     ethr =  4.95E-09,  avg # of iterations =  3.4

     total cpu time spent up to now is        1.9 secs

     total energy              =     -15.99475725 Ry
     Harris-Foulkes estimate   =     -15.99475730 Ry
     estimated scf accuracy    <       0.00000010 Ry

     iteration #  6     ecut=    60.00 Ry     beta= 0.50
     Davidson diagonalization with overlap
     ethr =  1.29E-09,  avg # of iterations =  2.0

     total cpu time spent up to now is        2.2 secs

     End of self-consistent calculation

          k = 0.0000 0.0000 0.0000 (  2421 PWs)   bands (ev):

    -7.1757   5.2696   5.2697   5.2697

          k = 0.1768 0.1768-0.1768 (  2442 PWs)   bands (ev):

    -6.4933   0.5847   4.4372   4.4372

          k =-0.3536-0.3536 0.3536 (  2452 PWs)   bands (ev):

    -5.2483  -2.2380   3.9451   3.9452

          k = 0.3536 0.0000 0.0000 (  2429 PWs)   bands (ev):

    -6.2446   0.5538   3.3194   3.3194

          k =-0.1768-0.5303 0.5303 (  2424 PWs)   bands (ev):

    -4.8564  -2.0693   1.6449   2.9742

          k = 0.0000-0.3536 0.3536 (  2437 PWs)   bands (ev):

    -5.4322  -1.2316   1.5089   3.8413

          k =-0.7071 0.0000 0.0000 (  2450 PWs)   bands (ev):

    -3.5354  -3.5354   2.3268   2.3269

          k =-0.7071 0.3536 0.0000 (  2468 PWs)   bands (ev):

    -3.4455  -3.4454   1.4787   1.4787

     highest occupied level (ev):     5.2697

!    total energy              =     -15.99475726 Ry
     Harris-Foulkes estimate   =     -15.99475727 Ry
     estimated scf accuracy    <       0.00000001 Ry

     The total energy is the sum of the following terms:

     one-electron contribution =       3.45791025 Ry
     hartree contribution      =       1.22724675 Ry
     xc contribution           =      -4.64479572 Ry
     ewald contribution        =     -16.03511854 Ry

     convergence has been achieved in   6 iterations

     Forces acting on atoms (cartesian axes, Ry/au):

     atom    1 type  1   force =    -0.00000000    0.00000000   -0.00000000
     atom    2 type  1   force =     0.00000000    0.00000000    0.00000000

     Total force =     0.000000     Total SCF correction =     0.000000


     Computing stress (Cartesian axis) and pressure

          total   stress  (Ry/bohr**3)                   (kbar)     P=  -25.17
  -0.00017107   0.00000000   0.00000000        -25.17      0.00      0.00
   0.00000000  -0.00017107   0.00000000          0.00    -25.17      0.00
   0.00000000   0.00000000  -0.00017107          0.00      0.00    -25.17


     init_run     :      0.21s CPU      0.22s WALL (       1 calls)
     electrons    :      1.96s CPU      1.98s WALL (       1 calls)
     forces       :      0.02s CPU      0.02s WALL (       1 calls)
     stress       :      0.09s CPU      0.09s WALL (       1 calls)

     Called by init_run:
     wfcinit      :      0.16s CPU      0.17s WALL (       1 calls)
     potinit      :      0.01s CPU      0.01s WALL (       1 calls)
     hinit0       :      0.02s CPU      0.03s WALL (       1 calls)

     Called by electrons:
     c_bands      :      1.53s CPU      1.54s WALL (       7 calls)
     sum_band     :      0.36s CPU      0.36s WALL (       7 calls)
     v_of_rho     :      0.05s CPU      0.05s WALL (       7 calls)
     mix_rho      :      0.03s CPU      0.03s WALL (       7 calls)

     Called by c_bands:
     init_us_2    :      0.06s CPU      0.06s WALL (     136 calls)
     cegterg      :      1.48s CPU      1.49s WALL (      56 calls)

     Called by sum_band:

     Called by *egterg:
     h_psi        :      1.50s CPU      1.51s WALL (     186 calls)
     g_psi        :      0.01s CPU      0.01s WALL (     122 calls)
     cdiaghg      :      0.01s CPU      0.01s WALL (     170 calls)

     Called by h_psi:
     h_psi:pot    :      1.49s CPU      1.51s WALL (     186 calls)
     h_psi:calbec :      0.03s CPU      0.03s WALL (     186 calls)
     vloc_psi     :      1.43s CPU      1.44s WALL (     186 calls)
     add_vuspsi   :      0.03s CPU      0.03s WALL (     186 calls)

     General routines
     calbec       :      0.04s CPU      0.04s WALL (     226 calls)
     fft          :      0.06s CPU      0.06s WALL (      26 calls)
     ffts         :      0.01s CPU      0.01s WALL (       7 calls)
     fftw         :      1.53s CPU      1.55s WALL (    1608 calls)

     Parallel routines

     PWSCF        :      2.30s CPU      2.34s WALL


   This run was terminated on:   2: 2:31   7Oct2020            

=------------------------------------------------------------------------------=
   JOB DONE.
=------------------------------------------------------------------------------=
