
     Program PWSCF v.6.4.1 starts on  7Oct2020 at  1:42:34 

     This program is part of the open-source Quantum ESPRESSO suite
     for quantum simulation of materials; please cite
         "P. Giannozzi et al., J. Phys.:Condens. Matter 21 395502 (2009);
         "P. Giannozzi et al., J. Phys.:Condens. Matter 29 465901 (2017);
          URL http://www.quantum-espresso.org", 
     in publications or presentations arising from this work. More details at
     http://www.quantum-espresso.org/quote

     Parallel version (MPI), running on     1 processors

     MPI processes distributed on     1 nodes
     Waiting for input...
     Reading input from standard input
Warning: card &IONS ignored
Warning: card / ignored
Warning: card &CELL ignored
Warning: card / ignored

     Current dimensions of program PWSCF are:
     Max number of different atomic species (ntypx) = 10
     Max number of k-points (npk) =  40000
     Max angular momentum in pseudopotentials (lmaxx) =  3

     Subspace diagonalization in iterative solution of the eigenvalue problem:
     a serial algorithm will be used

     Message from routine setup:
     DEPRECATED: symmetry with ibrav=0, use correct ibrav instead

     G-vector sticks info
     --------------------
     sticks:   dense  smooth     PW     G-vecs:    dense   smooth      PW
     Sum         121     121     55                  893      893     229



     bravais-lattice index     =            0
     lattice parameter (alat)  =       6.6812  a.u.
     unit-cell volume          =     210.8855 (a.u.)^3
     number of atoms/cell      =            2
     number of atomic types    =            1
     number of electrons       =         8.00
     number of Kohn-Sham states=            4
     kinetic-energy cutoff     =      10.0000  Ry
     charge density cutoff     =      40.0000  Ry
     convergence threshold     =      1.0E-07
     mixing beta               =       0.5000
     number of iterations used =            8  plain     mixing
     Exchange-correlation      = SLA PZ NOGX NOGC ( 1  1  0  0 0 0)

     celldm(1)=   6.681191  celldm(2)=   0.000000  celldm(3)=   0.000000
     celldm(4)=   0.000000  celldm(5)=   0.000000  celldm(6)=   0.000000

     crystal axes: (cart. coord. in units of alat)
               a(1) = (   0.000000   0.707107   0.707107 )  
               a(2) = (   0.707107   0.000000   0.707107 )  
               a(3) = (   0.707107   0.707107   0.000000 )  

     reciprocal axes: (cart. coord. in units 2 pi/alat)
               b(1) = ( -0.707107  0.707107  0.707107 )  
               b(2) = (  0.707107 -0.707107  0.707107 )  
               b(3) = (  0.707107  0.707107 -0.707107 )  


     PseudoPot. # 1 for Ge read from file:
     /home/modeler/qe_pseudo/Ge.pz-bhs.UPF
     MD5 check sum: 4f8fee77de72fb640d24dcbf01bda005
     Pseudo is Norm-conserving, Zval =  4.0
     Generated by new atomic code, or converted to UPF format
     Using radial grid of  291 points,  2 beta functions with: 
                l(1) =   0
                l(2) =   1

     atomic species   valence    mass     pseudopotential
        Ge             4.00    72.63000     Ge( 1.00)

      4 Sym. Ops. (no inversion) found



   Cartesian axes

     site n.     atom                  positions (alat units)
         1           Ge  tau(   1) = (   0.0000000   0.0000000   0.0707107  )
         2           Ge  tau(   2) = (   0.3535534   0.3535534   0.3535534  )

     number of k points=    27
                       cart. coord. in units 2pi/alat
        k(    1) = (   0.0000000   0.0000000   0.0000000), wk =   0.0160000
        k(    2) = (   0.1414214   0.1414214  -0.1414214), wk =   0.0640000
        k(    3) = (   0.2828427   0.2828427  -0.2828427), wk =   0.0640000
        k(    4) = (   0.2828427   0.0000000   0.0000000), wk =   0.0640000
        k(    5) = (   0.4242641   0.1414214  -0.1414214), wk =   0.1280000
        k(    6) = (  -0.1414214  -0.4242641   0.4242641), wk =   0.1280000
        k(    7) = (   0.0000000  -0.2828427   0.2828427), wk =   0.1280000
        k(    8) = (   0.5656854   0.0000000   0.0000000), wk =   0.0640000
        k(    9) = (   0.0000000  -0.5656854   0.5656854), wk =   0.1280000
        k(   10) = (  -0.1414214  -0.4242641   0.7071068), wk =   0.0640000
        k(   11) = (   0.1414214  -0.1414214  -0.1414214), wk =   0.0640000
        k(   12) = (   0.2828427  -0.2828427  -0.2828427), wk =   0.0640000
        k(   13) = (   0.0000000   0.0000000   0.2828427), wk =   0.0320000
        k(   14) = (   0.1414214  -0.4242641  -0.1414214), wk =   0.1280000
        k(   15) = (  -0.1414214  -0.1414214   0.4242641), wk =   0.0640000
        k(   16) = (   0.1414214  -0.1414214  -0.4242641), wk =   0.0640000
        k(   17) = (  -0.4242641   0.1414214   0.4242641), wk =   0.1280000
        k(   18) = (   0.4242641   0.4242641  -0.1414214), wk =   0.0640000
        k(   19) = (  -0.4242641   0.4242641   0.1414214), wk =   0.0640000
        k(   20) = (   0.2828427   0.2828427   0.0000000), wk =   0.0320000
        k(   21) = (  -0.2828427   0.2828427  -0.0000000), wk =   0.0320000
        k(   22) = (   0.0000000   0.0000000   0.5656854), wk =   0.0320000
        k(   23) = (   0.5656854   0.5656854   0.0000000), wk =   0.0320000
        k(   24) = (  -0.5656854   0.5656854   0.0000000), wk =   0.0320000
        k(   25) = (  -0.4242641   0.1414214   0.7071068), wk =   0.0640000
        k(   26) = (   0.7071068   0.4242641  -0.1414214), wk =   0.1280000
        k(   27) = (   0.1414214   0.7071068  -0.4242641), wk =   0.1280000

     Dense  grid:      893 G-vectors     FFT dimensions: (  15,  15,  15)

     Estimated max dynamical RAM per process >       0.92 MB

     Initial potential from superposition of free atoms

     starting charge    6.99990, renormalised to    8.00000
     Starting wfcs are    8 randomized atomic wfcs

     total cpu time spent up to now is        0.1 secs

     Self-consistent Calculation

     iteration #  1     ecut=    10.00 Ry     beta= 0.50
     Davidson diagonalization with overlap
     ethr =  1.00E-02,  avg # of iterations =  1.6

     Threshold (ethr) on eigenvalues was too large:
     Diagonalizing with lowered threshold

     Davidson diagonalization with overlap
     ethr =  3.09E-04,  avg # of iterations =  2.8

     total cpu time spent up to now is        0.1 secs

     total energy              =     -15.80198284 Ry
     Harris-Foulkes estimate   =     -15.80504522 Ry
     estimated scf accuracy    <       0.02799567 Ry

     iteration #  2     ecut=    10.00 Ry     beta= 0.50
     Davidson diagonalization with overlap
     ethr =  3.50E-04,  avg # of iterations =  1.0

     total cpu time spent up to now is        0.1 secs

     total energy              =     -15.80137697 Ry
     Harris-Foulkes estimate   =     -15.80219825 Ry
     estimated scf accuracy    <       0.00626918 Ry

     iteration #  3     ecut=    10.00 Ry     beta= 0.50
     Davidson diagonalization with overlap
     ethr =  7.84E-05,  avg # of iterations =  1.0

     total cpu time spent up to now is        0.1 secs

     total energy              =     -15.80149531 Ry
     Harris-Foulkes estimate   =     -15.80151540 Ry
     estimated scf accuracy    <       0.00004166 Ry

     iteration #  4     ecut=    10.00 Ry     beta= 0.50
     Davidson diagonalization with overlap
     ethr =  5.21E-07,  avg # of iterations =  3.1

     total cpu time spent up to now is        0.2 secs

     total energy              =     -15.80152607 Ry
     Harris-Foulkes estimate   =     -15.80152609 Ry
     estimated scf accuracy    <       0.00000028 Ry

     iteration #  5     ecut=    10.00 Ry     beta= 0.50
     Davidson diagonalization with overlap
     ethr =  3.45E-09,  avg # of iterations =  3.4

     total cpu time spent up to now is        0.2 secs

     End of self-consistent calculation

          k = 0.0000 0.0000 0.0000 (   113 PWs)   bands (ev):

    -5.7737   8.4740  10.2505  11.5344

          k = 0.1414 0.1414-0.1414 (   122 PWs)   bands (ev):

    -5.1709   5.0534   8.6926   9.8348

          k = 0.2828 0.2828-0.2828 (   114 PWs)   bands (ev):

    -3.3552   0.5612   7.6885   8.9766

          k = 0.2828 0.0000 0.0000 (   121 PWs)   bands (ev):

    -4.9885   5.7847   7.6745   8.2137

          k = 0.4243 0.1414-0.1414 (   113 PWs)   bands (ev):

    -3.5152   1.9117   6.3421   7.1345

          k =-0.1414-0.4243 0.4243 (   111 PWs)   bands (ev):

    -2.2024  -0.0247   5.1173   7.3543

          k = 0.0000-0.2828 0.2828 (   117 PWs)   bands (ev):

    -4.1994   3.6698   5.2229   8.8146

          k = 0.5657 0.0000 0.0000 (   112 PWs)   bands (ev):

    -2.5410   1.3568   5.8984   6.0012

          k = 0.0000-0.5657 0.5657 (   110 PWs)   bands (ev):

    -1.0574  -0.1720   3.8507   6.1118

          k =-0.1414-0.4243 0.7071 (   111 PWs)   bands (ev):

    -1.6143   0.1955   3.9261   5.8559

          k = 0.1414-0.1414-0.1414 (   122 PWs)   bands (ev):

    -5.2104   6.0243   7.8519   9.7519

          k = 0.2828-0.2828-0.2828 (   114 PWs)   bands (ev):

    -3.6838   1.6429   7.1718   9.0243

          k = 0.0000 0.0000 0.2828 (   121 PWs)   bands (ev):

    -4.9879   6.6440   6.7889   8.0332

          k = 0.1414-0.4243-0.1414 (   113 PWs)   bands (ev):

    -3.6894   3.1534   5.1836   7.1675

          k =-0.1414-0.1414 0.4243 (   113 PWs)   bands (ev):

    -3.5698   2.3775   5.5594   7.2684

          k = 0.1414-0.1414-0.4243 (   113 PWs)   bands (ev):

    -3.6684   2.8875   6.1293   6.4896

          k =-0.4243 0.1414 0.4243 (   111 PWs)   bands (ev):

    -2.6968   1.2670   4.2571   7.5608

          k = 0.4243 0.4243-0.1414 (   111 PWs)   bands (ev):

    -2.0647  -0.1864   4.6319   7.8285

          k =-0.4243 0.4243 0.1414 (   111 PWs)   bands (ev):

    -2.7894   1.3712   5.1883   6.4701

          k = 0.2828 0.2828 0.0000 (   117 PWs)   bands (ev):

    -4.1003   2.7513   5.5698   9.5018

          k =-0.2828 0.2828-0.0000 (   117 PWs)   bands (ev):

    -4.2894   4.7499   5.1936   7.5276

          k = 0.0000 0.0000 0.5657 (   112 PWs)   bands (ev):

    -2.6241   1.8038   5.2254   6.1371

          k = 0.5657 0.5657 0.0000 (   110 PWs)   bands (ev):

    -1.0323  -0.0154   3.2512   6.3476

          k =-0.5657 0.5657 0.0000 (   110 PWs)   bands (ev):

    -1.6639   0.8233   4.1683   5.3737

          k =-0.4243 0.1414 0.7071 (   111 PWs)   bands (ev):

    -2.2646   1.8585   4.0147   4.6862

          k = 0.7071 0.4243-0.1414 (   111 PWs)   bands (ev):

    -2.0560   1.2387   3.6955   5.4320

          k = 0.1414 0.7071-0.4243 (   111 PWs)   bands (ev):

    -1.9668   0.8896   3.9590   5.4833

     highest occupied level (ev):    11.5344

!    total energy              =     -15.80152623 Ry
     Harris-Foulkes estimate   =     -15.80152624 Ry
     estimated scf accuracy    <       0.00000005 Ry

     The total energy is the sum of the following terms:

     one-electron contribution =       6.56226213 Ry
     hartree contribution      =       0.86209822 Ry
     xc contribution           =      -5.05107725 Ry
     ewald contribution        =     -18.17480933 Ry

     convergence has been achieved in   5 iterations

     Forces acting on atoms (cartesian axes, Ry/au):

     atom    1 type  1   force =     0.00000000    0.00000000   -0.21437577
     atom    2 type  1   force =     0.00000000    0.00000000    0.21437577

     Total force =     0.303173     Total SCF correction =     0.000034


     Computing stress (Cartesian axis) and pressure

          total   stress  (Ry/bohr**3)                   (kbar)     P=  534.00
   0.00389881   0.00226768   0.00000000        573.53    333.59      0.00
   0.00226768   0.00389881   0.00000000        333.59    573.53      0.00
   0.00000000   0.00000000   0.00309254          0.00      0.00    454.93


     init_run     :      0.02s CPU      0.03s WALL (       1 calls)
     electrons    :      0.15s CPU      0.16s WALL (       1 calls)
     forces       :      0.00s CPU      0.00s WALL (       1 calls)
     stress       :      0.01s CPU      0.01s WALL (       1 calls)

     Called by init_run:
     wfcinit      :      0.02s CPU      0.02s WALL (       1 calls)
     potinit      :      0.00s CPU      0.00s WALL (       1 calls)
     hinit0       :      0.00s CPU      0.01s WALL (       1 calls)

     Called by electrons:
     c_bands      :      0.13s CPU      0.13s WALL (       6 calls)
     sum_band     :      0.02s CPU      0.02s WALL (       6 calls)
     v_of_rho     :      0.00s CPU      0.00s WALL (       6 calls)
     mix_rho      :      0.00s CPU      0.00s WALL (       6 calls)

     Called by c_bands:
     init_us_2    :      0.01s CPU      0.01s WALL (     405 calls)
     cegterg      :      0.12s CPU      0.12s WALL (     162 calls)

     Called by sum_band:

     Called by *egterg:
     h_psi        :      0.09s CPU      0.09s WALL (     537 calls)
     g_psi        :      0.00s CPU      0.00s WALL (     348 calls)
     cdiaghg      :      0.02s CPU      0.02s WALL (     483 calls)

     Called by h_psi:
     h_psi:pot    :      0.09s CPU      0.09s WALL (     537 calls)
     h_psi:calbec :      0.01s CPU      0.01s WALL (     537 calls)
     vloc_psi     :      0.08s CPU      0.08s WALL (     537 calls)
     add_vuspsi   :      0.00s CPU      0.00s WALL (     537 calls)

     General routines
     calbec       :      0.01s CPU      0.01s WALL (     672 calls)
     fft          :      0.00s CPU      0.00s WALL (      23 calls)
     ffts         :      0.00s CPU      0.00s WALL (       6 calls)
     fftw         :      0.06s CPU      0.07s WALL (    4488 calls)

     Parallel routines

     PWSCF        :      0.21s CPU      0.22s WALL


   This run was terminated on:   1:42:34   7Oct2020            

=------------------------------------------------------------------------------=
   JOB DONE.
=------------------------------------------------------------------------------=
