
     Program PWSCF v.6.4.1 starts on  1Oct2020 at 21:23:57 

     This program is part of the open-source Quantum ESPRESSO suite
     for quantum simulation of materials; please cite
         "P. Giannozzi et al., J. Phys.:Condens. Matter 21 395502 (2009);
         "P. Giannozzi et al., J. Phys.:Condens. Matter 29 465901 (2017);
          URL http://www.quantum-espresso.org", 
     in publications or presentations arising from this work. More details at
     http://www.quantum-espresso.org/quote

     Parallel version (MPI), running on     1 processors

     MPI processes distributed on     1 nodes
     Waiting for input...
     Reading input from standard input
Warning: card &IONS ignored
Warning: card / ignored
Warning: card &CELL ignored
Warning: card / ignored

     Current dimensions of program PWSCF are:
     Max number of different atomic species (ntypx) = 10
     Max number of k-points (npk) =  40000
     Max angular momentum in pseudopotentials (lmaxx) =  3

     Subspace diagonalization in iterative solution of the eigenvalue problem:
     a serial algorithm will be used

     Message from routine setup:
     DEPRECATED: symmetry with ibrav=0, use correct ibrav instead

     G-vector sticks info
     --------------------
     sticks:   dense  smooth     PW     G-vecs:    dense   smooth      PW
     Sum         433     433    139                 5961     5961    1067



     bravais-lattice index     =            0
     lattice parameter (alat)  =       6.6812  a.u.
     unit-cell volume          =     210.8855 (a.u.)^3
     number of atoms/cell      =            2
     number of atomic types    =            1
     number of electrons       =         8.00
     number of Kohn-Sham states=            4
     kinetic-energy cutoff     =      35.0000  Ry
     charge density cutoff     =     140.0000  Ry
     convergence threshold     =      1.0E-07
     mixing beta               =       0.5000
     number of iterations used =            8  plain     mixing
     Exchange-correlation      = SLA PZ NOGX NOGC ( 1  1  0  0 0 0)

     celldm(1)=   6.681191  celldm(2)=   0.000000  celldm(3)=   0.000000
     celldm(4)=   0.000000  celldm(5)=   0.000000  celldm(6)=   0.000000

     crystal axes: (cart. coord. in units of alat)
               a(1) = (   0.000000   0.707107   0.707107 )  
               a(2) = (   0.707107   0.000000   0.707107 )  
               a(3) = (   0.707107   0.707107   0.000000 )  

     reciprocal axes: (cart. coord. in units 2 pi/alat)
               b(1) = ( -0.707107  0.707107  0.707107 )  
               b(2) = (  0.707107 -0.707107  0.707107 )  
               b(3) = (  0.707107  0.707107 -0.707107 )  


     PseudoPot. # 1 for Ge read from file:
     /home/modeler/qe_pseudo/Ge.pz-bhs.UPF
     MD5 check sum: 4f8fee77de72fb640d24dcbf01bda005
     Pseudo is Norm-conserving, Zval =  4.0
     Generated by new atomic code, or converted to UPF format
     Using radial grid of  291 points,  2 beta functions with: 
                l(1) =   0
                l(2) =   1

     atomic species   valence    mass     pseudopotential
        Ge             4.00    72.63000     Ge( 1.00)

     48 Sym. Ops., with inversion, found (24 have fractional translation)



   Cartesian axes

     site n.     atom                  positions (alat units)
         1           Ge  tau(   1) = (   0.0000000   0.0000000   0.0000000  )
         2           Ge  tau(   2) = (   0.3535534   0.3535534   0.3535534  )

     number of k points=     8
                       cart. coord. in units 2pi/alat
        k(    1) = (   0.0000000   0.0000000   0.0000000), wk =   0.0312500
        k(    2) = (   0.1767767   0.1767767  -0.1767767), wk =   0.2500000
        k(    3) = (  -0.3535534  -0.3535534   0.3535534), wk =   0.1250000
        k(    4) = (   0.3535534   0.0000000   0.0000000), wk =   0.1875000
        k(    5) = (  -0.1767767  -0.5303301   0.5303301), wk =   0.7500000
        k(    6) = (   0.0000000  -0.3535534   0.3535534), wk =   0.3750000
        k(    7) = (  -0.7071068   0.0000000   0.0000000), wk =   0.0937500
        k(    8) = (  -0.7071068   0.3535534   0.0000000), wk =   0.1875000

     Dense  grid:     5961 G-vectors     FFT dimensions: (  32,  32,  32)

     Estimated max dynamical RAM per process >       5.68 MB

     Initial potential from superposition of free atoms

     starting charge    6.99990, renormalised to    8.00000
     Starting wfcs are    8 randomized atomic wfcs

     total cpu time spent up to now is        0.1 secs

     Self-consistent Calculation

     iteration #  1     ecut=    35.00 Ry     beta= 0.50
     Davidson diagonalization with overlap
     ethr =  1.00E-02,  avg # of iterations =  1.6

     Threshold (ethr) on eigenvalues was too large:
     Diagonalizing with lowered threshold

     Davidson diagonalization with overlap
     ethr =  2.96E-04,  avg # of iterations =  2.9

     total cpu time spent up to now is        0.2 secs

     total energy              =     -15.87674177 Ry
     Harris-Foulkes estimate   =     -15.88123350 Ry
     estimated scf accuracy    <       0.02980184 Ry

     iteration #  2     ecut=    35.00 Ry     beta= 0.50
     Davidson diagonalization with overlap
     ethr =  3.73E-04,  avg # of iterations =  1.0

     total cpu time spent up to now is        0.2 secs

     total energy              =     -15.87590795 Ry
     Harris-Foulkes estimate   =     -15.87701915 Ry
     estimated scf accuracy    <       0.00644207 Ry

     iteration #  3     ecut=    35.00 Ry     beta= 0.50
     Davidson diagonalization with overlap
     ethr =  8.05E-05,  avg # of iterations =  1.0

     total cpu time spent up to now is        0.3 secs

     total energy              =     -15.87606919 Ry
     Harris-Foulkes estimate   =     -15.87608703 Ry
     estimated scf accuracy    <       0.00004179 Ry

     iteration #  4     ecut=    35.00 Ry     beta= 0.50
     Davidson diagonalization with overlap
     ethr =  5.22E-07,  avg # of iterations =  3.0

     total cpu time spent up to now is        0.4 secs

     total energy              =     -15.87609561 Ry
     Harris-Foulkes estimate   =     -15.87609676 Ry
     estimated scf accuracy    <       0.00000272 Ry

     iteration #  5     ecut=    35.00 Ry     beta= 0.50
     Davidson diagonalization with overlap
     ethr =  3.39E-08,  avg # of iterations =  1.4

     total cpu time spent up to now is        0.4 secs

     End of self-consistent calculation

          k = 0.0000 0.0000 0.0000 (   725 PWs)   bands (ev):

    -5.7136   9.9759   9.9759   9.9759

          k = 0.1768 0.1768-0.1768 (   745 PWs)   bands (ev):

    -4.7742   4.3430   8.7033   8.7033

          k =-0.3536-0.3536 0.3536 (   754 PWs)   bands (ev):

    -2.8133   0.1258   8.0317   8.0317

          k = 0.3536 0.0000 0.0000 (   729 PWs)   bands (ev):

    -4.4444   5.2323   6.9467   6.9467

          k =-0.1768-0.5303 0.5303 (   735 PWs)   bands (ev):

    -2.3967   1.1532   4.6039   6.4830

          k = 0.0000-0.3536 0.3536 (   742 PWs)   bands (ev):

    -3.2516   2.4089   4.2224   7.8206

          k =-0.7071 0.0000 0.0000 (   740 PWs)   bands (ev):

    -0.6161  -0.6161   5.5254   5.5254

          k =-0.7071 0.3536 0.0000 (   724 PWs)   bands (ev):

    -0.3477  -0.3477   4.0248   4.0248

     highest occupied level (ev):     9.9759

!    total energy              =     -15.87609583 Ry
     Harris-Foulkes estimate   =     -15.87609582 Ry
     estimated scf accuracy    <       0.00000008 Ry

     The total energy is the sum of the following terms:

     one-electron contribution =       6.54499565 Ry
     hartree contribution      =       0.88696509 Ry
     xc contribution           =      -5.06440374 Ry
     ewald contribution        =     -18.24365283 Ry

     convergence has been achieved in   5 iterations

     Forces acting on atoms (cartesian axes, Ry/au):

     atom    1 type  1   force =     0.00000000    0.00000000    0.00000000
     atom    2 type  1   force =     0.00000000    0.00000000   -0.00000000

     Total force =     0.000000     Total SCF correction =     0.000000


     Computing stress (Cartesian axis) and pressure

          total   stress  (Ry/bohr**3)                   (kbar)     P=  545.11
   0.00370556  -0.00000000   0.00000000        545.11     -0.00      0.00
  -0.00000000   0.00370556  -0.00000000         -0.00    545.11     -0.00
  -0.00000000   0.00000000   0.00370556         -0.00      0.00    545.11


     init_run     :      0.06s CPU      0.06s WALL (       1 calls)
     electrons    :      0.31s CPU      0.32s WALL (       1 calls)
     forces       :      0.00s CPU      0.01s WALL (       1 calls)
     stress       :      0.02s CPU      0.03s WALL (       1 calls)

     Called by init_run:
     wfcinit      :      0.04s CPU      0.04s WALL (       1 calls)
     potinit      :      0.00s CPU      0.00s WALL (       1 calls)
     hinit0       :      0.01s CPU      0.01s WALL (       1 calls)

     Called by electrons:
     c_bands      :      0.24s CPU      0.24s WALL (       6 calls)
     sum_band     :      0.06s CPU      0.06s WALL (       6 calls)
     v_of_rho     :      0.01s CPU      0.01s WALL (       6 calls)
     mix_rho      :      0.00s CPU      0.01s WALL (       6 calls)

     Called by c_bands:
     init_us_2    :      0.02s CPU      0.02s WALL (     120 calls)
     cegterg      :      0.23s CPU      0.23s WALL (      48 calls)

     Called by sum_band:

     Called by *egterg:
     h_psi        :      0.22s CPU      0.23s WALL (     143 calls)
     g_psi        :      0.00s CPU      0.00s WALL (      87 calls)
     cdiaghg      :      0.01s CPU      0.01s WALL (     127 calls)

     Called by h_psi:
     h_psi:pot    :      0.22s CPU      0.23s WALL (     143 calls)
     h_psi:calbec :      0.01s CPU      0.01s WALL (     143 calls)
     vloc_psi     :      0.21s CPU      0.21s WALL (     143 calls)
     add_vuspsi   :      0.01s CPU      0.01s WALL (     143 calls)

     General routines
     calbec       :      0.01s CPU      0.01s WALL (     183 calls)
     fft          :      0.01s CPU      0.01s WALL (      23 calls)
     ffts         :      0.00s CPU      0.00s WALL (       6 calls)
     fftw         :      0.18s CPU      0.18s WALL (    1280 calls)

     Parallel routines

     PWSCF        :      0.43s CPU      0.45s WALL


   This run was terminated on:  21:23:58   1Oct2020            

=------------------------------------------------------------------------------=
   JOB DONE.
=------------------------------------------------------------------------------=
