
     Program PWSCF v.6.4.1 starts on  7Oct2020 at  0:38:17 

     This program is part of the open-source Quantum ESPRESSO suite
     for quantum simulation of materials; please cite
         "P. Giannozzi et al., J. Phys.:Condens. Matter 21 395502 (2009);
         "P. Giannozzi et al., J. Phys.:Condens. Matter 29 465901 (2017);
          URL http://www.quantum-espresso.org", 
     in publications or presentations arising from this work. More details at
     http://www.quantum-espresso.org/quote

     Parallel version (MPI), running on     1 processors

     MPI processes distributed on     1 nodes
     Waiting for input...
     Reading input from standard input
Warning: card &IONS ignored
Warning: card / ignored
Warning: card &CELL ignored
Warning: card / ignored

     Current dimensions of program PWSCF are:
     Max number of different atomic species (ntypx) = 10
     Max number of k-points (npk) =  40000
     Max angular momentum in pseudopotentials (lmaxx) =  3

     Subspace diagonalization in iterative solution of the eigenvalue problem:
     a serial algorithm will be used

     Message from routine setup:
     DEPRECATED: symmetry with ibrav=0, use correct ibrav instead

     G-vector sticks info
     --------------------
     sticks:   dense  smooth     PW     G-vecs:    dense   smooth      PW
     Sum         805     805    241                15009    15009    2421



     bravais-lattice index     =            0
     lattice parameter (alat)  =       6.6812  a.u.
     unit-cell volume          =     210.8855 (a.u.)^3
     number of atoms/cell      =            2
     number of atomic types    =            1
     number of electrons       =         8.00
     number of Kohn-Sham states=            4
     kinetic-energy cutoff     =      65.0000  Ry
     charge density cutoff     =     260.0000  Ry
     convergence threshold     =      1.0E-07
     mixing beta               =       0.5000
     number of iterations used =            8  plain     mixing
     Exchange-correlation      = SLA PZ NOGX NOGC ( 1  1  0  0 0 0)

     celldm(1)=   6.681191  celldm(2)=   0.000000  celldm(3)=   0.000000
     celldm(4)=   0.000000  celldm(5)=   0.000000  celldm(6)=   0.000000

     crystal axes: (cart. coord. in units of alat)
               a(1) = (   0.000000   0.707107   0.707107 )  
               a(2) = (   0.707107   0.000000   0.707107 )  
               a(3) = (   0.707107   0.707107   0.000000 )  

     reciprocal axes: (cart. coord. in units 2 pi/alat)
               b(1) = ( -0.707107  0.707107  0.707107 )  
               b(2) = (  0.707107 -0.707107  0.707107 )  
               b(3) = (  0.707107  0.707107 -0.707107 )  


     PseudoPot. # 1 for Ge read from file:
     /home/modeler/qe_pseudo/Ge.pz-bhs.UPF
     MD5 check sum: 4f8fee77de72fb640d24dcbf01bda005
     Pseudo is Norm-conserving, Zval =  4.0
     Generated by new atomic code, or converted to UPF format
     Using radial grid of  291 points,  2 beta functions with: 
                l(1) =   0
                l(2) =   1

     atomic species   valence    mass     pseudopotential
        Ge             4.00    72.63000     Ge( 1.00)

      4 Sym. Ops. (no inversion) found



   Cartesian axes

     site n.     atom                  positions (alat units)
         1           Ge  tau(   1) = (   0.0000000   0.0000000   0.0707107  )
         2           Ge  tau(   2) = (   0.3535534   0.3535534   0.3535534  )

     number of k points=    18
                       cart. coord. in units 2pi/alat
        k(    1) = (   0.0000000   0.0000000   0.0000000), wk =   0.0312500
        k(    2) = (   0.1767767   0.1767767  -0.1767767), wk =   0.1250000
        k(    3) = (  -0.3535534  -0.3535534   0.3535534), wk =   0.0625000
        k(    4) = (   0.3535534   0.0000000   0.0000000), wk =   0.1250000
        k(    5) = (  -0.1767767  -0.5303301   0.5303301), wk =   0.2500000
        k(    6) = (   0.0000000  -0.3535534   0.3535534), wk =   0.2500000
        k(    7) = (  -0.7071068   0.0000000   0.0000000), wk =   0.0625000
        k(    8) = (  -0.7071068   0.3535534   0.0000000), wk =   0.1250000
        k(    9) = (   0.1767767  -0.1767767  -0.1767767), wk =   0.1250000
        k(   10) = (  -0.3535534   0.3535534   0.3535534), wk =   0.0625000
        k(   11) = (   0.0000000   0.0000000   0.3535534), wk =   0.0625000
        k(   12) = (  -0.5303301   0.1767767   0.5303301), wk =   0.2500000
        k(   13) = (   0.5303301   0.5303301  -0.1767767), wk =   0.1250000
        k(   14) = (  -0.5303301   0.5303301   0.1767767), wk =   0.1250000
        k(   15) = (   0.3535534   0.3535534   0.0000000), wk =   0.0625000
        k(   16) = (  -0.3535534   0.3535534   0.0000000), wk =   0.0625000
        k(   17) = (   0.0000000   0.0000000  -0.7071068), wk =   0.0312500
        k(   18) = (   0.7071068  -0.0000000   0.3535534), wk =   0.0625000

     Dense  grid:    15009 G-vectors     FFT dimensions: (  36,  36,  36)

     Estimated max dynamical RAM per process >      12.88 MB

     Initial potential from superposition of free atoms

     starting charge    6.99990, renormalised to    8.00000
     Starting wfcs are    8 randomized atomic wfcs

     total cpu time spent up to now is        0.4 secs

     Self-consistent Calculation

     iteration #  1     ecut=    65.00 Ry     beta= 0.50
     Davidson diagonalization with overlap
     ethr =  1.00E-02,  avg # of iterations =  1.8

     Threshold (ethr) on eigenvalues was too large:
     Diagonalizing with lowered threshold

     Davidson diagonalization with overlap
     ethr =  3.21E-04,  avg # of iterations =  2.9

     total cpu time spent up to now is        1.4 secs

     total energy              =     -15.82408478 Ry
     Harris-Foulkes estimate   =     -15.82868146 Ry
     estimated scf accuracy    <       0.03009052 Ry

     iteration #  2     ecut=    65.00 Ry     beta= 0.50
     Davidson diagonalization with overlap
     ethr =  3.76E-04,  avg # of iterations =  1.0

     total cpu time spent up to now is        1.7 secs

     total energy              =     -15.82322159 Ry
     Harris-Foulkes estimate   =     -15.82438372 Ry
     estimated scf accuracy    <       0.00659422 Ry

     iteration #  3     ecut=    65.00 Ry     beta= 0.50
     Davidson diagonalization with overlap
     ethr =  8.24E-05,  avg # of iterations =  1.0

     total cpu time spent up to now is        2.0 secs

     total energy              =     -15.82341963 Ry
     Harris-Foulkes estimate   =     -15.82344314 Ry
     estimated scf accuracy    <       0.00004865 Ry

     iteration #  4     ecut=    65.00 Ry     beta= 0.50
     Davidson diagonalization with overlap
     ethr =  6.08E-07,  avg # of iterations =  3.2

     total cpu time spent up to now is        2.5 secs

     total energy              =     -15.82347018 Ry
     Harris-Foulkes estimate   =     -15.82347163 Ry
     estimated scf accuracy    <       0.00000346 Ry

     iteration #  5     ecut=    65.00 Ry     beta= 0.50
     Davidson diagonalization with overlap
     ethr =  4.32E-08,  avg # of iterations =  2.1

     total cpu time spent up to now is        2.9 secs

     total energy              =     -15.82347057 Ry
     Harris-Foulkes estimate   =     -15.82347060 Ry
     estimated scf accuracy    <       0.00000023 Ry

     iteration #  6     ecut=    65.00 Ry     beta= 0.50
     Davidson diagonalization with overlap
     ethr =  2.90E-09,  avg # of iterations =  2.4

     total cpu time spent up to now is        3.4 secs

     End of self-consistent calculation

          k = 0.0000 0.0000 0.0000 (  1837 PWs)   bands (ev):

    -5.7931   8.4611  10.2339  11.5161

          k = 0.1768 0.1768-0.1768 (  1880 PWs)   bands (ev):

    -4.8290   3.7986   8.3284   9.5023

          k =-0.3536-0.3536 0.3536 (  1892 PWs)   bands (ev):

    -2.5754  -0.6126   7.5350   8.8468

          k = 0.3536 0.0000 0.0000 (  1876 PWs)   bands (ev):

    -4.5353   4.6984   7.0442   7.4230

          k =-0.1768-0.5303 0.5303 (  1862 PWs)   bands (ev):

    -2.3101   0.4211   5.0333   6.6195

          k = 0.0000-0.3536 0.3536 (  1863 PWs)   bands (ev):

    -3.3727   2.3309   4.1536   8.0019

          k =-0.7071 0.0000 0.0000 (  1868 PWs)   bands (ev):

    -0.7705  -0.7704   5.6713   5.6714

          k =-0.7071 0.3536 0.0000 (  1856 PWs)   bands (ev):

    -1.1286   0.3041   3.6078   4.4290

          k = 0.1768-0.1768-0.1768 (  1880 PWs)   bands (ev):

    -4.8984   4.7170   7.6207   9.4729

          k =-0.3536 0.3536 0.3536 (  1892 PWs)   bands (ev):

    -3.2240   0.7707   7.0527   8.9167

          k = 0.0000 0.0000 0.3536 (  1876 PWs)   bands (ev):

    -4.5447   5.3617   6.2587   7.3558

          k =-0.5303 0.1768 0.5303 (  1862 PWs)   bands (ev):

    -2.7112   1.7725   3.9748   6.7416

          k = 0.5303 0.5303-0.1768 (  1862 PWs)   bands (ev):

    -2.4133   0.8499   4.2239   6.9168

          k =-0.5303 0.5303 0.1768 (  1862 PWs)   bands (ev):

    -2.7282   1.6216   5.0359   5.8270

          k = 0.3536 0.3536 0.0000 (  1863 PWs)   bands (ev):

    -3.1712   1.4159   4.3847   8.5056

          k =-0.3536 0.3536 0.0000 (  1863 PWs)   bands (ev):

    -3.5372   3.3733   4.1691   6.9251

          k = 0.0000 0.0000-0.7071 (  1868 PWs)   bands (ev):

    -1.5206   0.2989   4.9855   5.8620

          k = 0.7071-0.0000 0.3536 (  1856 PWs)   bands (ev):

    -0.5265  -0.5264   4.1507   4.1507

     highest occupied level (ev):    11.5161

!    total energy              =     -15.82347058 Ry
     Harris-Foulkes estimate   =     -15.82347063 Ry
     estimated scf accuracy    <       0.00000009 Ry

     The total energy is the sum of the following terms:

     one-electron contribution =       6.52756629 Ry
     hartree contribution      =       0.88759341 Ry
     xc contribution           =      -5.06382096 Ry
     ewald contribution        =     -18.17480932 Ry

     convergence has been achieved in   6 iterations

     Forces acting on atoms (cartesian axes, Ry/au):

     atom    1 type  1   force =     0.00000000   -0.00000000   -0.21722604
     atom    2 type  1   force =    -0.00000000    0.00000000    0.21722604

     Total force =     0.307204     Total SCF correction =     0.000053


     Computing stress (Cartesian axis) and pressure

          total   stress  (Ry/bohr**3)                   (kbar)     P=  590.84
   0.00427992   0.00220707   0.00000000        629.60    324.67      0.00
   0.00220707   0.00427992   0.00000000        324.67    629.60      0.00
  -0.00000000   0.00000000   0.00348960         -0.00      0.00    513.34


     init_run     :      0.40s CPU      0.42s WALL (       1 calls)
     electrons    :      2.90s CPU      2.93s WALL (       1 calls)
     forces       :      0.03s CPU      0.03s WALL (       1 calls)
     stress       :      0.13s CPU      0.14s WALL (       1 calls)

     Called by init_run:
     wfcinit      :      0.35s CPU      0.35s WALL (       1 calls)
     potinit      :      0.01s CPU      0.01s WALL (       1 calls)
     hinit0       :      0.03s CPU      0.04s WALL (       1 calls)

     Called by electrons:
     c_bands      :      2.39s CPU      2.41s WALL (       7 calls)
     sum_band     :      0.46s CPU      0.46s WALL (       7 calls)
     v_of_rho     :      0.03s CPU      0.03s WALL (       7 calls)
     mix_rho      :      0.02s CPU      0.02s WALL (       7 calls)

     Called by c_bands:
     init_us_2    :      0.11s CPU      0.11s WALL (     306 calls)
     cegterg      :      2.30s CPU      2.32s WALL (     126 calls)

     Called by sum_band:

     Called by *egterg:
     h_psi        :      2.36s CPU      2.38s WALL (     402 calls)
     g_psi        :      0.02s CPU      0.02s WALL (     258 calls)
     cdiaghg      :      0.03s CPU      0.03s WALL (     366 calls)

     Called by h_psi:
     h_psi:pot    :      2.35s CPU      2.37s WALL (     402 calls)
     h_psi:calbec :      0.07s CPU      0.07s WALL (     402 calls)
     vloc_psi     :      2.23s CPU      2.25s WALL (     402 calls)
     add_vuspsi   :      0.05s CPU      0.05s WALL (     402 calls)

     General routines
     calbec       :      0.08s CPU      0.08s WALL (     492 calls)
     fft          :      0.04s CPU      0.04s WALL (      26 calls)
     ffts         :      0.01s CPU      0.01s WALL (       7 calls)
     fftw         :      2.25s CPU      2.27s WALL (    3466 calls)

     Parallel routines

     PWSCF        :      3.49s CPU      3.54s WALL


   This run was terminated on:   0:38:20   7Oct2020            

=------------------------------------------------------------------------------=
   JOB DONE.
=------------------------------------------------------------------------------=
