
     Program PWSCF v.6.4.1 starts on  7Oct2020 at  0:38:26 

     This program is part of the open-source Quantum ESPRESSO suite
     for quantum simulation of materials; please cite
         "P. Giannozzi et al., J. Phys.:Condens. Matter 21 395502 (2009);
         "P. Giannozzi et al., J. Phys.:Condens. Matter 29 465901 (2017);
          URL http://www.quantum-espresso.org", 
     in publications or presentations arising from this work. More details at
     http://www.quantum-espresso.org/quote

     Parallel version (MPI), running on     1 processors

     MPI processes distributed on     1 nodes
     Waiting for input...
     Reading input from standard input
Warning: card &IONS ignored
Warning: card / ignored
Warning: card &CELL ignored
Warning: card / ignored

     Current dimensions of program PWSCF are:
     Max number of different atomic species (ntypx) = 10
     Max number of k-points (npk) =  40000
     Max angular momentum in pseudopotentials (lmaxx) =  3

     Subspace diagonalization in iterative solution of the eigenvalue problem:
     a serial algorithm will be used

     Message from routine setup:
     DEPRECATED: symmetry with ibrav=0, use correct ibrav instead

     G-vector sticks info
     --------------------
     sticks:   dense  smooth     PW     G-vecs:    dense   smooth      PW
     Sum         925     925    265                18499    18499    2891



     bravais-lattice index     =            0
     lattice parameter (alat)  =       6.6812  a.u.
     unit-cell volume          =     210.8855 (a.u.)^3
     number of atoms/cell      =            2
     number of atomic types    =            1
     number of electrons       =         8.00
     number of Kohn-Sham states=            4
     kinetic-energy cutoff     =      75.0000  Ry
     charge density cutoff     =     300.0000  Ry
     convergence threshold     =      1.0E-07
     mixing beta               =       0.5000
     number of iterations used =            8  plain     mixing
     Exchange-correlation      = SLA PZ NOGX NOGC ( 1  1  0  0 0 0)

     celldm(1)=   6.681191  celldm(2)=   0.000000  celldm(3)=   0.000000
     celldm(4)=   0.000000  celldm(5)=   0.000000  celldm(6)=   0.000000

     crystal axes: (cart. coord. in units of alat)
               a(1) = (   0.000000   0.707107   0.707107 )  
               a(2) = (   0.707107   0.000000   0.707107 )  
               a(3) = (   0.707107   0.707107   0.000000 )  

     reciprocal axes: (cart. coord. in units 2 pi/alat)
               b(1) = ( -0.707107  0.707107  0.707107 )  
               b(2) = (  0.707107 -0.707107  0.707107 )  
               b(3) = (  0.707107  0.707107 -0.707107 )  


     PseudoPot. # 1 for Ge read from file:
     /home/modeler/qe_pseudo/Ge.pz-bhs.UPF
     MD5 check sum: 4f8fee77de72fb640d24dcbf01bda005
     Pseudo is Norm-conserving, Zval =  4.0
     Generated by new atomic code, or converted to UPF format
     Using radial grid of  291 points,  2 beta functions with: 
                l(1) =   0
                l(2) =   1

     atomic species   valence    mass     pseudopotential
        Ge             4.00    72.63000     Ge( 1.00)

      4 Sym. Ops. (no inversion) found



   Cartesian axes

     site n.     atom                  positions (alat units)
         1           Ge  tau(   1) = (   0.0000000   0.0000000   0.0707107  )
         2           Ge  tau(   2) = (   0.3535534   0.3535534   0.3535534  )

     number of k points=    18
                       cart. coord. in units 2pi/alat
        k(    1) = (   0.0000000   0.0000000   0.0000000), wk =   0.0312500
        k(    2) = (   0.1767767   0.1767767  -0.1767767), wk =   0.1250000
        k(    3) = (  -0.3535534  -0.3535534   0.3535534), wk =   0.0625000
        k(    4) = (   0.3535534   0.0000000   0.0000000), wk =   0.1250000
        k(    5) = (  -0.1767767  -0.5303301   0.5303301), wk =   0.2500000
        k(    6) = (   0.0000000  -0.3535534   0.3535534), wk =   0.2500000
        k(    7) = (  -0.7071068   0.0000000   0.0000000), wk =   0.0625000
        k(    8) = (  -0.7071068   0.3535534   0.0000000), wk =   0.1250000
        k(    9) = (   0.1767767  -0.1767767  -0.1767767), wk =   0.1250000
        k(   10) = (  -0.3535534   0.3535534   0.3535534), wk =   0.0625000
        k(   11) = (   0.0000000   0.0000000   0.3535534), wk =   0.0625000
        k(   12) = (  -0.5303301   0.1767767   0.5303301), wk =   0.2500000
        k(   13) = (   0.5303301   0.5303301  -0.1767767), wk =   0.1250000
        k(   14) = (  -0.5303301   0.5303301   0.1767767), wk =   0.1250000
        k(   15) = (   0.3535534   0.3535534   0.0000000), wk =   0.0625000
        k(   16) = (  -0.3535534   0.3535534   0.0000000), wk =   0.0625000
        k(   17) = (   0.0000000   0.0000000  -0.7071068), wk =   0.0312500
        k(   18) = (   0.7071068  -0.0000000   0.3535534), wk =   0.0625000

     Dense  grid:    18499 G-vectors     FFT dimensions: (  40,  40,  40)

     Estimated max dynamical RAM per process >      16.32 MB

     Initial potential from superposition of free atoms

     starting charge    6.99990, renormalised to    8.00000
     Starting wfcs are    8 randomized atomic wfcs

     total cpu time spent up to now is        0.5 secs

     Self-consistent Calculation

     iteration #  1     ecut=    75.00 Ry     beta= 0.50
     Davidson diagonalization with overlap
     ethr =  1.00E-02,  avg # of iterations =  2.0

     Threshold (ethr) on eigenvalues was too large:
     Diagonalizing with lowered threshold

     Davidson diagonalization with overlap
     ethr =  3.29E-04,  avg # of iterations =  2.3

     total cpu time spent up to now is        1.7 secs

     total energy              =     -15.82356923 Ry
     Harris-Foulkes estimate   =     -15.82773895 Ry
     estimated scf accuracy    <       0.02885611 Ry

     iteration #  2     ecut=    75.00 Ry     beta= 0.50
     Davidson diagonalization with overlap
     ethr =  3.61E-04,  avg # of iterations =  1.0

     total cpu time spent up to now is        2.1 secs

     total energy              =     -15.82274776 Ry
     Harris-Foulkes estimate   =     -15.82384668 Ry
     estimated scf accuracy    <       0.00645730 Ry

     iteration #  3     ecut=    75.00 Ry     beta= 0.50
     Davidson diagonalization with overlap
     ethr =  8.07E-05,  avg # of iterations =  1.0

     total cpu time spent up to now is        2.6 secs

     total energy              =     -15.82294288 Ry
     Harris-Foulkes estimate   =     -15.82296901 Ry
     estimated scf accuracy    <       0.00005044 Ry

     iteration #  4     ecut=    75.00 Ry     beta= 0.50
     Davidson diagonalization with overlap
     ethr =  6.30E-07,  avg # of iterations =  3.8

     total cpu time spent up to now is        3.5 secs

     total energy              =     -15.82350807 Ry
     Harris-Foulkes estimate   =     -15.82350064 Ry
     estimated scf accuracy    <       0.00008000 Ry

     iteration #  5     ecut=    75.00 Ry     beta= 0.50
     Davidson diagonalization with overlap
     ethr =  6.30E-07,  avg # of iterations =  1.0

     total cpu time spent up to now is        3.9 secs

     total energy              =     -15.82345575 Ry
     Harris-Foulkes estimate   =     -15.82350827 Ry
     estimated scf accuracy    <       0.00009854 Ry

     iteration #  6     ecut=    75.00 Ry     beta= 0.50
     Davidson diagonalization with overlap
     ethr =  6.30E-07,  avg # of iterations =  2.2

     total cpu time spent up to now is        4.7 secs

     total energy              =     -15.82346694 Ry
     Harris-Foulkes estimate   =     -15.82348134 Ry
     estimated scf accuracy    <       0.00002239 Ry

     iteration #  7     ecut=    75.00 Ry     beta= 0.50
     Davidson diagonalization with overlap
     ethr =  2.80E-07,  avg # of iterations =  2.2

     total cpu time spent up to now is        5.4 secs

     total energy              =     -15.82347008 Ry
     Harris-Foulkes estimate   =     -15.82347523 Ry
     estimated scf accuracy    <       0.00000940 Ry

     iteration #  8     ecut=    75.00 Ry     beta= 0.50
     Davidson diagonalization with overlap
     ethr =  1.17E-07,  avg # of iterations =  2.2

     total cpu time spent up to now is        6.0 secs

     total energy              =     -15.82347159 Ry
     Harris-Foulkes estimate   =     -15.82347177 Ry
     estimated scf accuracy    <       0.00000034 Ry

     iteration #  9     ecut=    75.00 Ry     beta= 0.50
     Davidson diagonalization with overlap
     ethr =  4.30E-09,  avg # of iterations =  2.3

     total cpu time spent up to now is        6.7 secs

     End of self-consistent calculation

          k = 0.0000 0.0000 0.0000 (  2277 PWs)   bands (ev):

    -5.7936   8.4606  10.2333  11.5153

          k = 0.1768 0.1768-0.1768 (  2304 PWs)   bands (ev):

    -4.8294   3.7982   8.3279   9.5018

          k =-0.3536-0.3536 0.3536 (  2332 PWs)   bands (ev):

    -2.5760  -0.6129   7.5345   8.8462

          k = 0.3536 0.0000 0.0000 (  2293 PWs)   bands (ev):

    -4.5357   4.6979   7.0437   7.4224

          k =-0.1768-0.5303 0.5303 (  2315 PWs)   bands (ev):

    -2.3106   0.4207   5.0329   6.6190

          k = 0.0000-0.3536 0.3536 (  2325 PWs)   bands (ev):

    -3.3732   2.3304   4.1534   8.0013

          k =-0.7071 0.0000 0.0000 (  2298 PWs)   bands (ev):

    -0.7710  -0.7710   5.6709   5.6710

          k =-0.7071 0.3536 0.0000 (  2328 PWs)   bands (ev):

    -1.1290   0.3034   3.6075   4.4287

          k = 0.1768-0.1768-0.1768 (  2304 PWs)   bands (ev):

    -4.8988   4.7166   7.6202   9.4723

          k =-0.3536 0.3536 0.3536 (  2332 PWs)   bands (ev):

    -3.2244   0.7703   7.0522   8.9160

          k = 0.0000 0.0000 0.3536 (  2293 PWs)   bands (ev):

    -4.5451   5.3611   6.2582   7.3554

          k =-0.5303 0.1768 0.5303 (  2315 PWs)   bands (ev):

    -2.7117   1.7720   3.9745   6.7411

          k = 0.5303 0.5303-0.1768 (  2315 PWs)   bands (ev):

    -2.4138   0.8494   4.2235   6.9164

          k =-0.5303 0.5303 0.1768 (  2315 PWs)   bands (ev):

    -2.7287   1.6210   5.0355   5.8266

          k = 0.3536 0.3536 0.0000 (  2325 PWs)   bands (ev):

    -3.1717   1.4155   4.3843   8.5051

          k =-0.3536 0.3536 0.0000 (  2325 PWs)   bands (ev):

    -3.5376   3.3726   4.1689   6.9246

          k = 0.0000 0.0000-0.7071 (  2298 PWs)   bands (ev):

    -1.5210   0.2982   4.9851   5.8616

          k = 0.7071-0.0000 0.3536 (  2328 PWs)   bands (ev):

    -0.5270  -0.5269   4.1504   4.1504

     highest occupied level (ev):    11.5153

!    total energy              =     -15.82347166 Ry
     Harris-Foulkes estimate   =     -15.82347166 Ry
     estimated scf accuracy    <          2.8E-09 Ry

     The total energy is the sum of the following terms:

     one-electron contribution =       6.52749176 Ry
     hartree contribution      =       0.88771123 Ry
     xc contribution           =      -5.06386534 Ry
     ewald contribution        =     -18.17480932 Ry

     convergence has been achieved in   9 iterations

     Forces acting on atoms (cartesian axes, Ry/au):

     atom    1 type  1   force =     0.00000000    0.00000000   -0.21723173
     atom    2 type  1   force =     0.00000000    0.00000000    0.21723173

     Total force =     0.307212     Total SCF correction =     0.000004


     Computing stress (Cartesian axis) and pressure

          total   stress  (Ry/bohr**3)                   (kbar)     P=  590.99
   0.00428097   0.00220723   0.00000000        629.75    324.70      0.00
   0.00220723   0.00428097  -0.00000000        324.70    629.75     -0.00
   0.00000000   0.00000000   0.00349042          0.00      0.00    513.46


     init_run     :      0.42s CPU      0.44s WALL (       1 calls)
     electrons    :      6.20s CPU      6.25s WALL (       1 calls)
     forces       :      0.03s CPU      0.03s WALL (       1 calls)
     stress       :      0.16s CPU      0.16s WALL (       1 calls)

     Called by init_run:
     wfcinit      :      0.36s CPU      0.37s WALL (       1 calls)
     potinit      :      0.01s CPU      0.01s WALL (       1 calls)
     hinit0       :      0.03s CPU      0.04s WALL (       1 calls)

     Called by electrons:
     c_bands      :      4.95s CPU      4.99s WALL (      10 calls)
     sum_band     :      1.12s CPU      1.13s WALL (      10 calls)
     v_of_rho     :      0.07s CPU      0.07s WALL (      10 calls)
     mix_rho      :      0.05s CPU      0.06s WALL (      10 calls)

     Called by c_bands:
     init_us_2    :      0.17s CPU      0.17s WALL (     414 calls)
     cegterg      :      4.81s CPU      4.85s WALL (     180 calls)

     Called by sum_band:

     Called by *egterg:
     h_psi        :      4.76s CPU      4.80s WALL (     558 calls)
     g_psi        :      0.02s CPU      0.02s WALL (     360 calls)
     cdiaghg      :      0.04s CPU      0.04s WALL (     522 calls)

     Called by h_psi:
     h_psi:pot    :      4.75s CPU      4.79s WALL (     558 calls)
     h_psi:calbec :      0.10s CPU      0.10s WALL (     558 calls)
     vloc_psi     :      4.55s CPU      4.60s WALL (     558 calls)
     add_vuspsi   :      0.08s CPU      0.08s WALL (     558 calls)

     General routines
     calbec       :      0.11s CPU      0.12s WALL (     648 calls)
     fft          :      0.09s CPU      0.09s WALL (      35 calls)
     ffts         :      0.01s CPU      0.01s WALL (      10 calls)
     fftw         :      4.87s CPU      4.92s WALL (    4870 calls)

     Parallel routines

     PWSCF        :      6.83s CPU      6.91s WALL


   This run was terminated on:   0:38:32   7Oct2020            

=------------------------------------------------------------------------------=
   JOB DONE.
=------------------------------------------------------------------------------=
