
     Program PWSCF v.6.4.1 starts on  7Oct2020 at  0:38: 1 

     This program is part of the open-source Quantum ESPRESSO suite
     for quantum simulation of materials; please cite
         "P. Giannozzi et al., J. Phys.:Condens. Matter 21 395502 (2009);
         "P. Giannozzi et al., J. Phys.:Condens. Matter 29 465901 (2017);
          URL http://www.quantum-espresso.org", 
     in publications or presentations arising from this work. More details at
     http://www.quantum-espresso.org/quote

     Parallel version (MPI), running on     1 processors

     MPI processes distributed on     1 nodes
     Waiting for input...
     Reading input from standard input
Warning: card &IONS ignored
Warning: card / ignored
Warning: card &CELL ignored
Warning: card / ignored

     Current dimensions of program PWSCF are:
     Max number of different atomic species (ntypx) = 10
     Max number of k-points (npk) =  40000
     Max angular momentum in pseudopotentials (lmaxx) =  3

     Subspace diagonalization in iterative solution of the eigenvalue problem:
     a serial algorithm will be used

     Message from routine setup:
     DEPRECATED: symmetry with ibrav=0, use correct ibrav instead

     G-vector sticks info
     --------------------
     sticks:   dense  smooth     PW     G-vecs:    dense   smooth      PW
     Sum         499     499    151                 7239     7239    1243



     bravais-lattice index     =            0
     lattice parameter (alat)  =       6.6812  a.u.
     unit-cell volume          =     210.8855 (a.u.)^3
     number of atoms/cell      =            2
     number of atomic types    =            1
     number of electrons       =         8.00
     number of Kohn-Sham states=            4
     kinetic-energy cutoff     =      40.0000  Ry
     charge density cutoff     =     160.0000  Ry
     convergence threshold     =      1.0E-07
     mixing beta               =       0.5000
     number of iterations used =            8  plain     mixing
     Exchange-correlation      = SLA PZ NOGX NOGC ( 1  1  0  0 0 0)

     celldm(1)=   6.681191  celldm(2)=   0.000000  celldm(3)=   0.000000
     celldm(4)=   0.000000  celldm(5)=   0.000000  celldm(6)=   0.000000

     crystal axes: (cart. coord. in units of alat)
               a(1) = (   0.000000   0.707107   0.707107 )  
               a(2) = (   0.707107   0.000000   0.707107 )  
               a(3) = (   0.707107   0.707107   0.000000 )  

     reciprocal axes: (cart. coord. in units 2 pi/alat)
               b(1) = ( -0.707107  0.707107  0.707107 )  
               b(2) = (  0.707107 -0.707107  0.707107 )  
               b(3) = (  0.707107  0.707107 -0.707107 )  


     PseudoPot. # 1 for Ge read from file:
     /home/modeler/qe_pseudo/Ge.pz-bhs.UPF
     MD5 check sum: 4f8fee77de72fb640d24dcbf01bda005
     Pseudo is Norm-conserving, Zval =  4.0
     Generated by new atomic code, or converted to UPF format
     Using radial grid of  291 points,  2 beta functions with: 
                l(1) =   0
                l(2) =   1

     atomic species   valence    mass     pseudopotential
        Ge             4.00    72.63000     Ge( 1.00)

      4 Sym. Ops. (no inversion) found



   Cartesian axes

     site n.     atom                  positions (alat units)
         1           Ge  tau(   1) = (   0.0000000   0.0000000   0.0707107  )
         2           Ge  tau(   2) = (   0.3535534   0.3535534   0.3535534  )

     number of k points=    18
                       cart. coord. in units 2pi/alat
        k(    1) = (   0.0000000   0.0000000   0.0000000), wk =   0.0312500
        k(    2) = (   0.1767767   0.1767767  -0.1767767), wk =   0.1250000
        k(    3) = (  -0.3535534  -0.3535534   0.3535534), wk =   0.0625000
        k(    4) = (   0.3535534   0.0000000   0.0000000), wk =   0.1250000
        k(    5) = (  -0.1767767  -0.5303301   0.5303301), wk =   0.2500000
        k(    6) = (   0.0000000  -0.3535534   0.3535534), wk =   0.2500000
        k(    7) = (  -0.7071068   0.0000000   0.0000000), wk =   0.0625000
        k(    8) = (  -0.7071068   0.3535534   0.0000000), wk =   0.1250000
        k(    9) = (   0.1767767  -0.1767767  -0.1767767), wk =   0.1250000
        k(   10) = (  -0.3535534   0.3535534   0.3535534), wk =   0.0625000
        k(   11) = (   0.0000000   0.0000000   0.3535534), wk =   0.0625000
        k(   12) = (  -0.5303301   0.1767767   0.5303301), wk =   0.2500000
        k(   13) = (   0.5303301   0.5303301  -0.1767767), wk =   0.1250000
        k(   14) = (  -0.5303301   0.5303301   0.1767767), wk =   0.1250000
        k(   15) = (   0.3535534   0.3535534   0.0000000), wk =   0.0625000
        k(   16) = (  -0.3535534   0.3535534   0.0000000), wk =   0.0625000
        k(   17) = (   0.0000000   0.0000000  -0.7071068), wk =   0.0312500
        k(   18) = (   0.7071068  -0.0000000   0.3535534), wk =   0.0625000

     Dense  grid:     7239 G-vectors     FFT dimensions: (  27,  27,  27)

     Estimated max dynamical RAM per process >       6.06 MB

     Initial potential from superposition of free atoms

     starting charge    6.99990, renormalised to    8.00000
     Starting wfcs are    8 randomized atomic wfcs

     total cpu time spent up to now is        0.2 secs

     Self-consistent Calculation

     iteration #  1     ecut=    40.00 Ry     beta= 0.50
     Davidson diagonalization with overlap
     ethr =  1.00E-02,  avg # of iterations =  1.6

     Threshold (ethr) on eigenvalues was too large:
     Diagonalizing with lowered threshold

     Davidson diagonalization with overlap
     ethr =  3.09E-04,  avg # of iterations =  3.0

     total cpu time spent up to now is        0.7 secs

     total energy              =     -15.82402384 Ry
     Harris-Foulkes estimate   =     -15.82874640 Ry
     estimated scf accuracy    <       0.03029552 Ry

     iteration #  2     ecut=    40.00 Ry     beta= 0.50
     Davidson diagonalization with overlap
     ethr =  3.79E-04,  avg # of iterations =  1.0

     total cpu time spent up to now is        0.8 secs

     total energy              =     -15.82316866 Ry
     Harris-Foulkes estimate   =     -15.82433016 Ry
     estimated scf accuracy    <       0.00650990 Ry

     iteration #  3     ecut=    40.00 Ry     beta= 0.50
     Davidson diagonalization with overlap
     ethr =  8.14E-05,  avg # of iterations =  1.0

     total cpu time spent up to now is        1.0 secs

     total energy              =     -15.82334253 Ry
     Harris-Foulkes estimate   =     -15.82336263 Ry
     estimated scf accuracy    <       0.00004648 Ry

     iteration #  4     ecut=    40.00 Ry     beta= 0.50
     Davidson diagonalization with overlap
     ethr =  5.81E-07,  avg # of iterations =  3.3

     total cpu time spent up to now is        1.3 secs

     total energy              =     -15.82338877 Ry
     Harris-Foulkes estimate   =     -15.82339034 Ry
     estimated scf accuracy    <       0.00000321 Ry

     iteration #  5     ecut=    40.00 Ry     beta= 0.50
     Davidson diagonalization with overlap
     ethr =  4.01E-08,  avg # of iterations =  2.0

     total cpu time spent up to now is        1.5 secs

     total energy              =     -15.82338918 Ry
     Harris-Foulkes estimate   =     -15.82338923 Ry
     estimated scf accuracy    <       0.00000020 Ry

     iteration #  6     ecut=    40.00 Ry     beta= 0.50
     Davidson diagonalization with overlap
     ethr =  2.49E-09,  avg # of iterations =  2.6

     total cpu time spent up to now is        1.8 secs

     total energy              =     -15.82338921 Ry
     Harris-Foulkes estimate   =     -15.82338926 Ry
     estimated scf accuracy    <       0.00000010 Ry

     iteration #  7     ecut=    40.00 Ry     beta= 0.50
     Davidson diagonalization with overlap
     ethr =  1.27E-09,  avg # of iterations =  1.9

     total cpu time spent up to now is        1.9 secs

     End of self-consistent calculation

          k = 0.0000 0.0000 0.0000 (   893 PWs)   bands (ev):

    -5.7935   8.4605  10.2333  11.5153

          k = 0.1768 0.1768-0.1768 (   902 PWs)   bands (ev):

    -4.8294   3.7983   8.3278   9.5018

          k =-0.3536-0.3536 0.3536 (   886 PWs)   bands (ev):

    -2.5759  -0.6128   7.5344   8.8462

          k = 0.3536 0.0000 0.0000 (   902 PWs)   bands (ev):

    -4.5357   4.6981   7.0437   7.4224

          k =-0.1768-0.5303 0.5303 (   898 PWs)   bands (ev):

    -2.3104   0.4208   5.0329   6.6190

          k = 0.0000-0.3536 0.3536 (   889 PWs)   bands (ev):

    -3.3731   2.3306   4.1534   8.0013

          k =-0.7071 0.0000 0.0000 (   934 PWs)   bands (ev):

    -0.7708  -0.7708   5.6709   5.6709

          k =-0.7071 0.3536 0.0000 (   892 PWs)   bands (ev):

    -1.1288   0.3036   3.6075   4.4288

          k = 0.1768-0.1768-0.1768 (   902 PWs)   bands (ev):

    -4.8987   4.7167   7.6201   9.4723

          k =-0.3536 0.3536 0.3536 (   886 PWs)   bands (ev):

    -3.2243   0.7704   7.0521   8.9160

          k = 0.0000 0.0000 0.3536 (   902 PWs)   bands (ev):

    -4.5450   5.3613   6.2582   7.3554

          k =-0.5303 0.1768 0.5303 (   898 PWs)   bands (ev):

    -2.7115   1.7721   3.9746   6.7411

          k = 0.5303 0.5303-0.1768 (   898 PWs)   bands (ev):

    -2.4136   0.8496   4.2236   6.9164

          k =-0.5303 0.5303 0.1768 (   898 PWs)   bands (ev):

    -2.7285   1.6212   5.0356   5.8265

          k = 0.3536 0.3536 0.0000 (   889 PWs)   bands (ev):

    -3.1716   1.4157   4.3843   8.5051

          k =-0.3536 0.3536 0.0000 (   889 PWs)   bands (ev):

    -3.5375   3.3728   4.1690   6.9245

          k = 0.0000 0.0000-0.7071 (   934 PWs)   bands (ev):

    -1.5209   0.2984   4.9851   5.8616

          k = 0.7071-0.0000 0.3536 (   892 PWs)   bands (ev):

    -0.5268  -0.5268   4.1504   4.1504

     highest occupied level (ev):    11.5153

!    total energy              =     -15.82338922 Ry
     Harris-Foulkes estimate   =     -15.82338922 Ry
     estimated scf accuracy    <          7.0E-10 Ry

     The total energy is the sum of the following terms:

     one-electron contribution =       6.52760539 Ry
     hartree contribution      =       0.88766869 Ry
     xc contribution           =      -5.06385394 Ry
     ewald contribution        =     -18.17480935 Ry

     convergence has been achieved in   7 iterations

     Forces acting on atoms (cartesian axes, Ry/au):

     atom    1 type  1   force =    -0.00000000    0.00000000   -0.21723537
     atom    2 type  1   force =     0.00000000   -0.00000000    0.21723537

     Total force =     0.307217     Total SCF correction =     0.000006


     Computing stress (Cartesian axis) and pressure

          total   stress  (Ry/bohr**3)                   (kbar)     P=  590.85
   0.00428001   0.00220707   0.00000000        629.61    324.67      0.00
   0.00220707   0.00428001  -0.00000000        324.67    629.61     -0.00
  -0.00000000   0.00000000   0.00348962         -0.00      0.00    513.34


     init_run     :      0.17s CPU      0.18s WALL (       1 calls)
     electrons    :      1.73s CPU      1.74s WALL (       1 calls)
     forces       :      0.01s CPU      0.01s WALL (       1 calls)
     stress       :      0.06s CPU      0.06s WALL (       1 calls)

     Called by init_run:
     wfcinit      :      0.14s CPU      0.15s WALL (       1 calls)
     potinit      :      0.00s CPU      0.00s WALL (       1 calls)
     hinit0       :      0.02s CPU      0.02s WALL (       1 calls)

     Called by electrons:
     c_bands      :      1.44s CPU      1.44s WALL (       8 calls)
     sum_band     :      0.27s CPU      0.27s WALL (       8 calls)
     v_of_rho     :      0.01s CPU      0.01s WALL (       8 calls)
     mix_rho      :      0.01s CPU      0.01s WALL (       8 calls)

     Called by c_bands:
     init_us_2    :      0.06s CPU      0.06s WALL (     342 calls)
     cegterg      :      1.39s CPU      1.39s WALL (     144 calls)

     Called by sum_band:

     Called by *egterg:
     h_psi        :      1.37s CPU      1.39s WALL (     456 calls)
     g_psi        :      0.01s CPU      0.01s WALL (     294 calls)
     cdiaghg      :      0.03s CPU      0.03s WALL (     420 calls)

     Called by h_psi:
     h_psi:pot    :      1.37s CPU      1.38s WALL (     456 calls)
     h_psi:calbec :      0.03s CPU      0.03s WALL (     456 calls)
     vloc_psi     :      1.31s CPU      1.32s WALL (     456 calls)
     add_vuspsi   :      0.03s CPU      0.03s WALL (     456 calls)

     General routines
     calbec       :      0.04s CPU      0.04s WALL (     546 calls)
     fft          :      0.02s CPU      0.02s WALL (      29 calls)
     ffts         :      0.00s CPU      0.00s WALL (       8 calls)
     fftw         :      1.39s CPU      1.40s WALL (    3906 calls)

     Parallel routines

     PWSCF        :      2.00s CPU      2.02s WALL


   This run was terminated on:   0:38: 3   7Oct2020            

=------------------------------------------------------------------------------=
   JOB DONE.
=------------------------------------------------------------------------------=
