
     Program PWSCF v.6.4.1 starts on  1Oct2020 at 21:23:57 

     This program is part of the open-source Quantum ESPRESSO suite
     for quantum simulation of materials; please cite
         "P. Giannozzi et al., J. Phys.:Condens. Matter 21 395502 (2009);
         "P. Giannozzi et al., J. Phys.:Condens. Matter 29 465901 (2017);
          URL http://www.quantum-espresso.org", 
     in publications or presentations arising from this work. More details at
     http://www.quantum-espresso.org/quote

     Parallel version (MPI), running on     1 processors

     MPI processes distributed on     1 nodes
     Waiting for input...
     Reading input from standard input
Warning: card &IONS ignored
Warning: card / ignored
Warning: card &CELL ignored
Warning: card / ignored

     Current dimensions of program PWSCF are:
     Max number of different atomic species (ntypx) = 10
     Max number of k-points (npk) =  40000
     Max angular momentum in pseudopotentials (lmaxx) =  3

     Subspace diagonalization in iterative solution of the eigenvalue problem:
     a serial algorithm will be used

     Message from routine setup:
     DEPRECATED: symmetry with ibrav=0, use correct ibrav instead

     G-vector sticks info
     --------------------
     sticks:   dense  smooth     PW     G-vecs:    dense   smooth      PW
     Sum         367     367    121                 4645     4645     869



     bravais-lattice index     =            0
     lattice parameter (alat)  =       6.6812  a.u.
     unit-cell volume          =     210.8855 (a.u.)^3
     number of atoms/cell      =            2
     number of atomic types    =            1
     number of electrons       =         8.00
     number of Kohn-Sham states=            4
     kinetic-energy cutoff     =      30.0000  Ry
     charge density cutoff     =     120.0000  Ry
     convergence threshold     =      1.0E-07
     mixing beta               =       0.5000
     number of iterations used =            8  plain     mixing
     Exchange-correlation      = SLA PZ NOGX NOGC ( 1  1  0  0 0 0)

     celldm(1)=   6.681191  celldm(2)=   0.000000  celldm(3)=   0.000000
     celldm(4)=   0.000000  celldm(5)=   0.000000  celldm(6)=   0.000000

     crystal axes: (cart. coord. in units of alat)
               a(1) = (   0.000000   0.707107   0.707107 )  
               a(2) = (   0.707107   0.000000   0.707107 )  
               a(3) = (   0.707107   0.707107   0.000000 )  

     reciprocal axes: (cart. coord. in units 2 pi/alat)
               b(1) = ( -0.707107  0.707107  0.707107 )  
               b(2) = (  0.707107 -0.707107  0.707107 )  
               b(3) = (  0.707107  0.707107 -0.707107 )  


     PseudoPot. # 1 for Ge read from file:
     /home/modeler/qe_pseudo/Ge.pz-bhs.UPF
     MD5 check sum: 4f8fee77de72fb640d24dcbf01bda005
     Pseudo is Norm-conserving, Zval =  4.0
     Generated by new atomic code, or converted to UPF format
     Using radial grid of  291 points,  2 beta functions with: 
                l(1) =   0
                l(2) =   1

     atomic species   valence    mass     pseudopotential
        Ge             4.00    72.63000     Ge( 1.00)

     48 Sym. Ops., with inversion, found (24 have fractional translation)



   Cartesian axes

     site n.     atom                  positions (alat units)
         1           Ge  tau(   1) = (   0.0000000   0.0000000   0.0000000  )
         2           Ge  tau(   2) = (   0.3535534   0.3535534   0.3535534  )

     number of k points=     8
                       cart. coord. in units 2pi/alat
        k(    1) = (   0.0000000   0.0000000   0.0000000), wk =   0.0312500
        k(    2) = (   0.1767767   0.1767767  -0.1767767), wk =   0.2500000
        k(    3) = (  -0.3535534  -0.3535534   0.3535534), wk =   0.1250000
        k(    4) = (   0.3535534   0.0000000   0.0000000), wk =   0.1875000
        k(    5) = (  -0.1767767  -0.5303301   0.5303301), wk =   0.7500000
        k(    6) = (   0.0000000  -0.3535534   0.3535534), wk =   0.3750000
        k(    7) = (  -0.7071068   0.0000000   0.0000000), wk =   0.0937500
        k(    8) = (  -0.7071068   0.3535534   0.0000000), wk =   0.1875000

     Dense  grid:     4645 G-vectors     FFT dimensions: (  24,  24,  24)

     Estimated max dynamical RAM per process >       3.65 MB

     Initial potential from superposition of free atoms

     starting charge    6.99990, renormalised to    8.00000
     Starting wfcs are    8 randomized atomic wfcs

     total cpu time spent up to now is        0.1 secs

     Self-consistent Calculation

     iteration #  1     ecut=    30.00 Ry     beta= 0.50
     Davidson diagonalization with overlap
     ethr =  1.00E-02,  avg # of iterations =  1.6

     Threshold (ethr) on eigenvalues was too large:
     Diagonalizing with lowered threshold

     Davidson diagonalization with overlap
     ethr =  2.90E-04,  avg # of iterations =  2.8

     total cpu time spent up to now is        0.2 secs

     total energy              =     -15.87655908 Ry
     Harris-Foulkes estimate   =     -15.88106437 Ry
     estimated scf accuracy    <       0.02987556 Ry

     iteration #  2     ecut=    30.00 Ry     beta= 0.50
     Davidson diagonalization with overlap
     ethr =  3.73E-04,  avg # of iterations =  1.0

     total cpu time spent up to now is        0.2 secs

     total energy              =     -15.87573714 Ry
     Harris-Foulkes estimate   =     -15.87684254 Ry
     estimated scf accuracy    <       0.00642906 Ry

     iteration #  3     ecut=    30.00 Ry     beta= 0.50
     Davidson diagonalization with overlap
     ethr =  8.04E-05,  avg # of iterations =  1.1

     total cpu time spent up to now is        0.2 secs

     total energy              =     -15.87590192 Ry
     Harris-Foulkes estimate   =     -15.87591944 Ry
     estimated scf accuracy    <       0.00004212 Ry

     iteration #  4     ecut=    30.00 Ry     beta= 0.50
     Davidson diagonalization with overlap
     ethr =  5.27E-07,  avg # of iterations =  3.0

     total cpu time spent up to now is        0.3 secs

     total energy              =     -15.87592834 Ry
     Harris-Foulkes estimate   =     -15.87592960 Ry
     estimated scf accuracy    <       0.00000285 Ry

     iteration #  5     ecut=    30.00 Ry     beta= 0.50
     Davidson diagonalization with overlap
     ethr =  3.56E-08,  avg # of iterations =  1.8

     total cpu time spent up to now is        0.3 secs

     End of self-consistent calculation

          k = 0.0000 0.0000 0.0000 (   561 PWs)   bands (ev):

    -5.7135   9.9761   9.9761   9.9761

          k = 0.1768 0.1768-0.1768 (   580 PWs)   bands (ev):

    -4.7741   4.3433   8.7034   8.7034

          k =-0.3536-0.3536 0.3536 (   580 PWs)   bands (ev):

    -2.8130   0.1260   8.0320   8.0320

          k = 0.3536 0.0000 0.0000 (   576 PWs)   bands (ev):

    -4.4444   5.2328   6.9469   6.9469

          k =-0.1768-0.5303 0.5303 (   584 PWs)   bands (ev):

    -2.3965   1.1536   4.6041   6.4832

          k = 0.0000-0.3536 0.3536 (   590 PWs)   bands (ev):

    -3.2515   2.4093   4.2226   7.8208

          k =-0.7071 0.0000 0.0000 (   588 PWs)   bands (ev):

    -0.6159  -0.6159   5.5256   5.5256

          k =-0.7071 0.3536 0.0000 (   604 PWs)   bands (ev):

    -0.3476  -0.3476   4.0250   4.0250

     highest occupied level (ev):     9.9761

!    total energy              =     -15.87592858 Ry
     Harris-Foulkes estimate   =     -15.87592857 Ry
     estimated scf accuracy    <       0.00000007 Ry

     The total energy is the sum of the following terms:

     one-electron contribution =       6.54517184 Ry
     hartree contribution      =       0.88692840 Ry
     xc contribution           =      -5.06437597 Ry
     ewald contribution        =     -18.24365286 Ry

     convergence has been achieved in   5 iterations

     Forces acting on atoms (cartesian axes, Ry/au):

     atom    1 type  1   force =     0.00000000    0.00000000   -0.00000000
     atom    2 type  1   force =     0.00000000    0.00000000    0.00000000

     Total force =     0.000000     Total SCF correction =     0.000000


     Computing stress (Cartesian axis) and pressure

          total   stress  (Ry/bohr**3)                   (kbar)     P=  544.60
   0.00370208  -0.00000000   0.00000000        544.60     -0.00      0.00
  -0.00000000   0.00370208   0.00000000         -0.00    544.60      0.00
   0.00000000   0.00000000   0.00370208          0.00      0.00    544.60


     init_run     :      0.05s CPU      0.06s WALL (       1 calls)
     electrons    :      0.24s CPU      0.25s WALL (       1 calls)
     forces       :      0.00s CPU      0.00s WALL (       1 calls)
     stress       :      0.02s CPU      0.02s WALL (       1 calls)

     Called by init_run:
     wfcinit      :      0.03s CPU      0.03s WALL (       1 calls)
     potinit      :      0.00s CPU      0.00s WALL (       1 calls)
     hinit0       :      0.02s CPU      0.02s WALL (       1 calls)

     Called by electrons:
     c_bands      :      0.18s CPU      0.19s WALL (       6 calls)
     sum_band     :      0.04s CPU      0.05s WALL (       6 calls)
     v_of_rho     :      0.01s CPU      0.01s WALL (       6 calls)
     mix_rho      :      0.00s CPU      0.00s WALL (       6 calls)

     Called by c_bands:
     init_us_2    :      0.01s CPU      0.01s WALL (     120 calls)
     cegterg      :      0.17s CPU      0.18s WALL (      48 calls)

     Called by sum_band:

     Called by *egterg:
     h_psi        :      0.17s CPU      0.18s WALL (     146 calls)
     g_psi        :      0.00s CPU      0.00s WALL (      90 calls)
     cdiaghg      :      0.01s CPU      0.01s WALL (     130 calls)

     Called by h_psi:
     h_psi:pot    :      0.17s CPU      0.17s WALL (     146 calls)
     h_psi:calbec :      0.01s CPU      0.01s WALL (     146 calls)
     vloc_psi     :      0.16s CPU      0.16s WALL (     146 calls)
     add_vuspsi   :      0.00s CPU      0.01s WALL (     146 calls)

     General routines
     calbec       :      0.01s CPU      0.01s WALL (     186 calls)
     fft          :      0.01s CPU      0.01s WALL (      23 calls)
     ffts         :      0.00s CPU      0.00s WALL (       6 calls)
     fftw         :      0.16s CPU      0.16s WALL (    1290 calls)

     Parallel routines

     PWSCF        :      0.34s CPU      0.36s WALL


   This run was terminated on:  21:23:57   1Oct2020            

=------------------------------------------------------------------------------=
   JOB DONE.
=------------------------------------------------------------------------------=
