
     Program PWSCF v.6.4.1 starts on  7Oct2020 at  3:49:45 

     This program is part of the open-source Quantum ESPRESSO suite
     for quantum simulation of materials; please cite
         "P. Giannozzi et al., J. Phys.:Condens. Matter 21 395502 (2009);
         "P. Giannozzi et al., J. Phys.:Condens. Matter 29 465901 (2017);
          URL http://www.quantum-espresso.org", 
     in publications or presentations arising from this work. More details at
     http://www.quantum-espresso.org/quote

     Parallel version (MPI), running on     1 processors

     MPI processes distributed on     1 nodes
     Waiting for input...
     Reading input from standard input
Warning: card &IONS ignored
Warning: card / ignored
Warning: card &CELL ignored
Warning: card / ignored

     Current dimensions of program PWSCF are:
     Max number of different atomic species (ntypx) = 10
     Max number of k-points (npk) =  40000
     Max angular momentum in pseudopotentials (lmaxx) =  3

     Subspace diagonalization in iterative solution of the eigenvalue problem:
     a serial algorithm will be used

     Message from routine setup:
     DEPRECATED: symmetry with ibrav=0, use correct ibrav instead

     G-vector sticks info
     --------------------
     sticks:   dense  smooth     PW     G-vecs:    dense   smooth      PW
     Sum         703     703    211                12387    12387    2085



     bravais-lattice index     =            0
     lattice parameter (alat)  =       8.0174  a.u.
     unit-cell volume          =     364.4101 (a.u.)^3
     number of atoms/cell      =            2
     number of atomic types    =            1
     number of electrons       =         8.00
     number of Kohn-Sham states=            4
     kinetic-energy cutoff     =      40.0000  Ry
     charge density cutoff     =     160.0000  Ry
     convergence threshold     =      1.0E-07
     mixing beta               =       0.5000
     number of iterations used =            8  plain     mixing
     Exchange-correlation      = SLA PZ NOGX NOGC ( 1  1  0  0 0 0)

     celldm(1)=   8.017429  celldm(2)=   0.000000  celldm(3)=   0.000000
     celldm(4)=   0.000000  celldm(5)=   0.000000  celldm(6)=   0.000000

     crystal axes: (cart. coord. in units of alat)
               a(1) = (   0.000000   0.707107   0.707107 )  
               a(2) = (   0.707107   0.000000   0.707107 )  
               a(3) = (   0.707107   0.707107   0.000000 )  

     reciprocal axes: (cart. coord. in units 2 pi/alat)
               b(1) = ( -0.707107  0.707107  0.707107 )  
               b(2) = (  0.707107 -0.707107  0.707107 )  
               b(3) = (  0.707107  0.707107 -0.707107 )  


     PseudoPot. # 1 for Ge read from file:
     /home/modeler/qe_pseudo/Ge.pz-bhs.UPF
     MD5 check sum: 4f8fee77de72fb640d24dcbf01bda005
     Pseudo is Norm-conserving, Zval =  4.0
     Generated by new atomic code, or converted to UPF format
     Using radial grid of  291 points,  2 beta functions with: 
                l(1) =   0
                l(2) =   1

     atomic species   valence    mass     pseudopotential
        Ge             4.00    72.63000     Ge( 1.00)

     48 Sym. Ops., with inversion, found (24 have fractional translation)



   Cartesian axes

     site n.     atom                  positions (alat units)
         1           Ge  tau(   1) = (   0.0000000   0.0000000   0.0000000  )
         2           Ge  tau(   2) = (   0.3535534   0.3535534   0.3535534  )

     number of k points=    10
                       cart. coord. in units 2pi/alat
        k(    1) = (   0.0000000   0.0000000   0.0000000), wk =   0.0160000
        k(    2) = (   0.1414214   0.1414214  -0.1414214), wk =   0.1280000
        k(    3) = (   0.2828427   0.2828427  -0.2828427), wk =   0.1280000
        k(    4) = (   0.2828427   0.0000000   0.0000000), wk =   0.0960000
        k(    5) = (   0.4242641   0.1414214  -0.1414214), wk =   0.3840000
        k(    6) = (  -0.1414214  -0.4242641   0.4242641), wk =   0.3840000
        k(    7) = (   0.0000000  -0.2828427   0.2828427), wk =   0.1920000
        k(    8) = (   0.5656854   0.0000000   0.0000000), wk =   0.0960000
        k(    9) = (   0.0000000  -0.5656854   0.5656854), wk =   0.1920000
        k(   10) = (  -0.1414214  -0.4242641   0.7071068), wk =   0.3840000

     Dense  grid:    12387 G-vectors     FFT dimensions: (  36,  36,  36)

     Estimated max dynamical RAM per process >      10.47 MB

     Initial potential from superposition of free atoms

     starting charge    6.99990, renormalised to    8.00000
     Starting wfcs are    8 randomized atomic wfcs

     total cpu time spent up to now is        0.2 secs

     Self-consistent Calculation

     iteration #  1     ecut=    40.00 Ry     beta= 0.50
     Davidson diagonalization with overlap
     ethr =  1.00E-02,  avg # of iterations =  1.2

     Threshold (ethr) on eigenvalues was too large:
     Diagonalizing with lowered threshold

     Davidson diagonalization with overlap
     ethr =  3.54E-04,  avg # of iterations =  2.7

     total cpu time spent up to now is        0.6 secs

     total energy              =     -15.98554648 Ry
     Harris-Foulkes estimate   =     -15.99180998 Ry
     estimated scf accuracy    <       0.02930030 Ry

     iteration #  2     ecut=    40.00 Ry     beta= 0.50
     Davidson diagonalization with overlap
     ethr =  3.66E-04,  avg # of iterations =  1.0

     total cpu time spent up to now is        0.7 secs

     total energy              =     -15.98433569 Ry
     Harris-Foulkes estimate   =     -15.98596869 Ry
     estimated scf accuracy    <       0.00649053 Ry

     iteration #  3     ecut=    40.00 Ry     beta= 0.50
     Davidson diagonalization with overlap
     ethr =  8.11E-05,  avg # of iterations =  1.4

     total cpu time spent up to now is        0.9 secs

     total energy              =     -15.98464624 Ry
     Harris-Foulkes estimate   =     -15.98468922 Ry
     estimated scf accuracy    <       0.00008583 Ry

     iteration #  4     ecut=    40.00 Ry     beta= 0.50
     Davidson diagonalization with overlap
     ethr =  1.07E-06,  avg # of iterations =  3.4

     total cpu time spent up to now is        1.1 secs

     total energy              =     -15.98469381 Ry
     Harris-Foulkes estimate   =     -15.98470409 Ry
     estimated scf accuracy    <       0.00001954 Ry

     iteration #  5     ecut=    40.00 Ry     beta= 0.50
     Davidson diagonalization with overlap
     ethr =  2.44E-07,  avg # of iterations =  2.3

     total cpu time spent up to now is        1.3 secs

     total energy              =     -15.98469691 Ry
     Harris-Foulkes estimate   =     -15.98469701 Ry
     estimated scf accuracy    <       0.00000032 Ry

     iteration #  6     ecut=    40.00 Ry     beta= 0.50
     Davidson diagonalization with overlap
     ethr =  3.96E-09,  avg # of iterations =  4.0

     total cpu time spent up to now is        1.6 secs

     total energy              =     -15.98469723 Ry
     Harris-Foulkes estimate   =     -15.98469729 Ry
     estimated scf accuracy    <       0.00000017 Ry

     iteration #  7     ecut=    40.00 Ry     beta= 0.50
     Davidson diagonalization with overlap
     ethr =  2.10E-09,  avg # of iterations =  1.0

     total cpu time spent up to now is        1.8 secs

     End of self-consistent calculation

          k = 0.0000 0.0000 0.0000 (  1471 PWs)   bands (ev):

    -7.6579   2.4969   3.7820   3.7820

          k = 0.1414 0.1414-0.1414 (  1540 PWs)   bands (ev):

    -7.2765  -0.1076   3.2571   3.2571

          k = 0.2828 0.2828-0.2828 (  1549 PWs)   bands (ev):

    -6.3222  -2.6815   2.7306   2.7306

          k = 0.2828 0.0000 0.0000 (  1535 PWs)   bands (ev):

    -7.1412  -0.3015   2.5165   2.5165

          k = 0.4243 0.1414-0.1414 (  1573 PWs)   bands (ev):

    -6.3100  -2.3178   1.3923   2.0490

          k =-0.1414-0.4243 0.4243 (  1555 PWs)   bands (ev):

    -5.7316  -3.2760   0.7181   2.2592

          k = 0.0000-0.2828 0.2828 (  1554 PWs)   bands (ev):

    -6.6686  -1.6430   1.2537   2.9861

          k = 0.5657 0.0000 0.0000 (  1584 PWs)   bands (ev):

    -5.6289  -3.2634   1.4529   1.4529

          k = 0.0000-0.5657 0.5657 (  1558 PWs)   bands (ev):

    -4.8018  -4.2168   0.4710   1.5451

          k =-0.1414-0.4243 0.7071 (  1562 PWs)   bands (ev):

    -5.3568  -3.5624   0.5038   1.3083

     highest occupied level (ev):     3.7820

!    total energy              =     -15.98469723 Ry
     Harris-Foulkes estimate   =     -15.98469723 Ry
     estimated scf accuracy    <       0.00000002 Ry

     The total energy is the sum of the following terms:

     one-electron contribution =       2.33692520 Ry
     hartree contribution      =       1.37363123 Ry
     xc contribution           =      -4.49220961 Ry
     ewald contribution        =     -15.20304405 Ry

     convergence has been achieved in   7 iterations

     Forces acting on atoms (cartesian axes, Ry/au):

     atom    1 type  1   force =     0.00000000    0.00000000    0.00000000
     atom    2 type  1   force =     0.00000000    0.00000000    0.00000000

     Total force =     0.000000     Total SCF correction =     0.000000


     Computing stress (Cartesian axis) and pressure

          total   stress  (Ry/bohr**3)                   (kbar)     P=  -84.97
  -0.00057759  -0.00000000   0.00000000        -84.97     -0.00      0.00
  -0.00000000  -0.00057759   0.00000000         -0.00    -84.97      0.00
   0.00000000   0.00000000  -0.00057759          0.00      0.00    -84.97


     init_run     :      0.17s CPU      0.17s WALL (       1 calls)
     electrons    :      1.55s CPU      1.56s WALL (       1 calls)
     forces       :      0.01s CPU      0.01s WALL (       1 calls)
     stress       :      0.07s CPU      0.07s WALL (       1 calls)

     Called by init_run:
     wfcinit      :      0.13s CPU      0.13s WALL (       1 calls)
     potinit      :      0.01s CPU      0.01s WALL (       1 calls)
     hinit0       :      0.02s CPU      0.02s WALL (       1 calls)

     Called by electrons:
     c_bands      :      1.23s CPU      1.23s WALL (       8 calls)
     sum_band     :      0.27s CPU      0.27s WALL (       8 calls)
     v_of_rho     :      0.03s CPU      0.03s WALL (       8 calls)
     mix_rho      :      0.02s CPU      0.02s WALL (       8 calls)

     Called by c_bands:
     init_us_2    :      0.05s CPU      0.05s WALL (     190 calls)
     cegterg      :      1.18s CPU      1.19s WALL (      80 calls)

     Called by sum_band:

     Called by *egterg:
     h_psi        :      1.18s CPU      1.18s WALL (     260 calls)
     g_psi        :      0.01s CPU      0.01s WALL (     170 calls)
     cdiaghg      :      0.02s CPU      0.02s WALL (     240 calls)

     Called by h_psi:
     h_psi:pot    :      1.17s CPU      1.18s WALL (     260 calls)
     h_psi:calbec :      0.03s CPU      0.03s WALL (     260 calls)
     vloc_psi     :      1.12s CPU      1.12s WALL (     260 calls)
     add_vuspsi   :      0.02s CPU      0.02s WALL (     260 calls)

     General routines
     calbec       :      0.03s CPU      0.03s WALL (     310 calls)
     fft          :      0.04s CPU      0.04s WALL (      29 calls)
     ffts         :      0.01s CPU      0.01s WALL (       8 calls)
     fftw         :      1.15s CPU      1.15s WALL (    2154 calls)

     Parallel routines

     PWSCF        :      1.83s CPU      1.84s WALL


   This run was terminated on:   3:49:47   7Oct2020            

=------------------------------------------------------------------------------=
   JOB DONE.
=------------------------------------------------------------------------------=
