
     Program PWSCF v.6.4.1 starts on  7Oct2020 at  0:37:55 

     This program is part of the open-source Quantum ESPRESSO suite
     for quantum simulation of materials; please cite
         "P. Giannozzi et al., J. Phys.:Condens. Matter 21 395502 (2009);
         "P. Giannozzi et al., J. Phys.:Condens. Matter 29 465901 (2017);
          URL http://www.quantum-espresso.org", 
     in publications or presentations arising from this work. More details at
     http://www.quantum-espresso.org/quote

     Parallel version (MPI), running on     1 processors

     MPI processes distributed on     1 nodes
     Waiting for input...
     Reading input from standard input
Warning: card &IONS ignored
Warning: card / ignored
Warning: card &CELL ignored
Warning: card / ignored

     Current dimensions of program PWSCF are:
     Max number of different atomic species (ntypx) = 10
     Max number of k-points (npk) =  40000
     Max angular momentum in pseudopotentials (lmaxx) =  3

     Subspace diagonalization in iterative solution of the eigenvalue problem:
     a serial algorithm will be used

     Message from routine setup:
     DEPRECATED: symmetry with ibrav=0, use correct ibrav instead

     G-vector sticks info
     --------------------
     sticks:   dense  smooth     PW     G-vecs:    dense   smooth      PW
     Sum         187     187     61                 1639     1639     339



     bravais-lattice index     =            0
     lattice parameter (alat)  =       6.6812  a.u.
     unit-cell volume          =     210.8855 (a.u.)^3
     number of atoms/cell      =            2
     number of atomic types    =            1
     number of electrons       =         8.00
     number of Kohn-Sham states=            4
     kinetic-energy cutoff     =      15.0000  Ry
     charge density cutoff     =      60.0000  Ry
     convergence threshold     =      1.0E-07
     mixing beta               =       0.5000
     number of iterations used =            8  plain     mixing
     Exchange-correlation      = SLA PZ NOGX NOGC ( 1  1  0  0 0 0)

     celldm(1)=   6.681191  celldm(2)=   0.000000  celldm(3)=   0.000000
     celldm(4)=   0.000000  celldm(5)=   0.000000  celldm(6)=   0.000000

     crystal axes: (cart. coord. in units of alat)
               a(1) = (   0.000000   0.707107   0.707107 )  
               a(2) = (   0.707107   0.000000   0.707107 )  
               a(3) = (   0.707107   0.707107   0.000000 )  

     reciprocal axes: (cart. coord. in units 2 pi/alat)
               b(1) = ( -0.707107  0.707107  0.707107 )  
               b(2) = (  0.707107 -0.707107  0.707107 )  
               b(3) = (  0.707107  0.707107 -0.707107 )  


     PseudoPot. # 1 for Ge read from file:
     /home/modeler/qe_pseudo/Ge.pz-bhs.UPF
     MD5 check sum: 4f8fee77de72fb640d24dcbf01bda005
     Pseudo is Norm-conserving, Zval =  4.0
     Generated by new atomic code, or converted to UPF format
     Using radial grid of  291 points,  2 beta functions with: 
                l(1) =   0
                l(2) =   1

     atomic species   valence    mass     pseudopotential
        Ge             4.00    72.63000     Ge( 1.00)

      4 Sym. Ops. (no inversion) found



   Cartesian axes

     site n.     atom                  positions (alat units)
         1           Ge  tau(   1) = (   0.0000000   0.0000000   0.0707107  )
         2           Ge  tau(   2) = (   0.3535534   0.3535534   0.3535534  )

     number of k points=    18
                       cart. coord. in units 2pi/alat
        k(    1) = (   0.0000000   0.0000000   0.0000000), wk =   0.0312500
        k(    2) = (   0.1767767   0.1767767  -0.1767767), wk =   0.1250000
        k(    3) = (  -0.3535534  -0.3535534   0.3535534), wk =   0.0625000
        k(    4) = (   0.3535534   0.0000000   0.0000000), wk =   0.1250000
        k(    5) = (  -0.1767767  -0.5303301   0.5303301), wk =   0.2500000
        k(    6) = (   0.0000000  -0.3535534   0.3535534), wk =   0.2500000
        k(    7) = (  -0.7071068   0.0000000   0.0000000), wk =   0.0625000
        k(    8) = (  -0.7071068   0.3535534   0.0000000), wk =   0.1250000
        k(    9) = (   0.1767767  -0.1767767  -0.1767767), wk =   0.1250000
        k(   10) = (  -0.3535534   0.3535534   0.3535534), wk =   0.0625000
        k(   11) = (   0.0000000   0.0000000   0.3535534), wk =   0.0625000
        k(   12) = (  -0.5303301   0.1767767   0.5303301), wk =   0.2500000
        k(   13) = (   0.5303301   0.5303301  -0.1767767), wk =   0.1250000
        k(   14) = (  -0.5303301   0.5303301   0.1767767), wk =   0.1250000
        k(   15) = (   0.3535534   0.3535534   0.0000000), wk =   0.0625000
        k(   16) = (  -0.3535534   0.3535534   0.0000000), wk =   0.0625000
        k(   17) = (   0.0000000   0.0000000  -0.7071068), wk =   0.0312500
        k(   18) = (   0.7071068  -0.0000000   0.3535534), wk =   0.0625000

     Dense  grid:     1639 G-vectors     FFT dimensions: (  18,  18,  18)

     Estimated max dynamical RAM per process >       1.52 MB

     Initial potential from superposition of free atoms

     starting charge    6.99990, renormalised to    8.00000
     Starting wfcs are    8 randomized atomic wfcs

     total cpu time spent up to now is        0.1 secs

     Self-consistent Calculation

     iteration #  1     ecut=    15.00 Ry     beta= 0.50
     Davidson diagonalization with overlap
     ethr =  1.00E-02,  avg # of iterations =  1.6

     Threshold (ethr) on eigenvalues was too large:
     Diagonalizing with lowered threshold

     Davidson diagonalization with overlap
     ethr =  3.16E-04,  avg # of iterations =  2.7

     total cpu time spent up to now is        0.2 secs

     total energy              =     -15.81487108 Ry
     Harris-Foulkes estimate   =     -15.81908196 Ry
     estimated scf accuracy    <       0.02932023 Ry

     iteration #  2     ecut=    15.00 Ry     beta= 0.50
     Davidson diagonalization with overlap
     ethr =  3.67E-04,  avg # of iterations =  1.0

     total cpu time spent up to now is        0.3 secs

     total energy              =     -15.81404744 Ry
     Harris-Foulkes estimate   =     -15.81513666 Ry
     estimated scf accuracy    <       0.00643065 Ry

     iteration #  3     ecut=    15.00 Ry     beta= 0.50
     Davidson diagonalization with overlap
     ethr =  8.04E-05,  avg # of iterations =  1.0

     total cpu time spent up to now is        0.3 secs

     total energy              =     -15.81420392 Ry
     Harris-Foulkes estimate   =     -15.81422223 Ry
     estimated scf accuracy    <       0.00004028 Ry

     iteration #  4     ecut=    15.00 Ry     beta= 0.50
     Davidson diagonalization with overlap
     c_bands:  1 eigenvalues not converged
     ethr =  5.03E-07,  avg # of iterations =  3.9

     total cpu time spent up to now is        0.4 secs

     total energy              =     -15.81466352 Ry
     Harris-Foulkes estimate   =     -15.81466405 Ry
     estimated scf accuracy    <       0.00007584 Ry

     iteration #  5     ecut=    15.00 Ry     beta= 0.50
     Davidson diagonalization with overlap
     ethr =  5.03E-07,  avg # of iterations =  1.6

     total cpu time spent up to now is        0.4 secs

     total energy              =     -15.81466445 Ry
     Harris-Foulkes estimate   =     -15.81466455 Ry
     estimated scf accuracy    <       0.00007727 Ry

     iteration #  6     ecut=    15.00 Ry     beta= 0.50
     Davidson diagonalization with overlap
     ethr =  5.03E-07,  avg # of iterations =  1.0

     total cpu time spent up to now is        0.5 secs

     total energy              =     -15.81466831 Ry
     Harris-Foulkes estimate   =     -15.81466446 Ry
     estimated scf accuracy    <       0.00007689 Ry

     iteration #  7     ecut=    15.00 Ry     beta= 0.50
     Davidson diagonalization with overlap
     ethr =  5.03E-07,  avg # of iterations =  1.0

     total cpu time spent up to now is        0.5 secs

     total energy              =     -15.81464293 Ry
     Harris-Foulkes estimate   =     -15.81466851 Ry
     estimated scf accuracy    <       0.00008702 Ry

     iteration #  8     ecut=    15.00 Ry     beta= 0.50
     Davidson diagonalization with overlap
     ethr =  5.03E-07,  avg # of iterations =  2.4

     total cpu time spent up to now is        0.6 secs

     total energy              =     -15.81465380 Ry
     Harris-Foulkes estimate   =     -15.81465162 Ry
     estimated scf accuracy    <       0.00004209 Ry

     iteration #  9     ecut=    15.00 Ry     beta= 0.50
     Davidson diagonalization with overlap
     ethr =  5.03E-07,  avg # of iterations =  2.5

     total cpu time spent up to now is        0.7 secs

     total energy              =     -15.81464573 Ry
     Harris-Foulkes estimate   =     -15.81466542 Ry
     estimated scf accuracy    <       0.00008921 Ry

     iteration # 10     ecut=    15.00 Ry     beta= 0.50
     Davidson diagonalization with overlap
     ethr =  5.03E-07,  avg # of iterations =  1.1

     total cpu time spent up to now is        0.7 secs

     total energy              =     -15.81462405 Ry
     Harris-Foulkes estimate   =     -15.81464714 Ry
     estimated scf accuracy    <       0.00004167 Ry

     iteration # 11     ecut=    15.00 Ry     beta= 0.50
     Davidson diagonalization with overlap
     ethr =  5.03E-07,  avg # of iterations =  2.7

     total cpu time spent up to now is        0.8 secs

     total energy              =     -15.81463491 Ry
     Harris-Foulkes estimate   =     -15.81464069 Ry
     estimated scf accuracy    <       0.00001301 Ry

     iteration # 12     ecut=    15.00 Ry     beta= 0.50
     Davidson diagonalization with overlap
     ethr =  1.63E-07,  avg # of iterations =  2.3

     total cpu time spent up to now is        0.8 secs

     total energy              =     -15.81463660 Ry
     Harris-Foulkes estimate   =     -15.81463638 Ry
     estimated scf accuracy    <       0.00000050 Ry

     iteration # 13     ecut=    15.00 Ry     beta= 0.50
     Davidson diagonalization with overlap
     ethr =  6.26E-09,  avg # of iterations =  2.6

     total cpu time spent up to now is        0.9 secs

     total energy              =     -15.81463642 Ry
     Harris-Foulkes estimate   =     -15.81463673 Ry
     estimated scf accuracy    <       0.00000097 Ry

     iteration # 14     ecut=    15.00 Ry     beta= 0.50
     Davidson diagonalization with overlap
     ethr =  6.26E-09,  avg # of iterations =  1.6

     total cpu time spent up to now is        1.0 secs

     total energy              =     -15.81463640 Ry
     Harris-Foulkes estimate   =     -15.81463646 Ry
     estimated scf accuracy    <       0.00000027 Ry

     iteration # 15     ecut=    15.00 Ry     beta= 0.50
     Davidson diagonalization with overlap
     ethr =  3.38E-09,  avg # of iterations =  1.0

     total cpu time spent up to now is        1.0 secs

     total energy              =     -15.81463637 Ry
     Harris-Foulkes estimate   =     -15.81463641 Ry
     estimated scf accuracy    <       0.00000015 Ry

     iteration # 16     ecut=    15.00 Ry     beta= 0.50
     Davidson diagonalization with overlap
     ethr =  1.88E-09,  avg # of iterations =  1.9

     total cpu time spent up to now is        1.1 secs

     End of self-consistent calculation

          k = 0.0000 0.0000 0.0000 (   181 PWs)   bands (ev):

    -5.7942   8.4876  10.2613  11.5469

          k = 0.1768 0.1768-0.1768 (   205 PWs)   bands (ev):

    -4.8298   3.8116   8.3454   9.5212

          k =-0.3536-0.3536 0.3536 (   210 PWs)   bands (ev):

    -2.5738  -0.6074   7.5516   8.8669

          k = 0.3536 0.0000 0.0000 (   202 PWs)   bands (ev):

    -4.5357   4.7139   7.0601   7.4393

          k =-0.1768-0.5303 0.5303 (   211 PWs)   bands (ev):

    -2.3073   0.4297   5.0456   6.6317

          k = 0.0000-0.3536 0.3536 (   210 PWs)   bands (ev):

    -3.3724   2.3423   4.1650   8.0175

          k =-0.7071 0.0000 0.0000 (   206 PWs)   bands (ev):

    -0.7649  -0.7648   5.6860   5.6861

          k =-0.7071 0.3536 0.0000 (   208 PWs)   bands (ev):

    -1.1239   0.3114   3.6189   4.4392

          k = 0.1768-0.1768-0.1768 (   205 PWs)   bands (ev):

    -4.8994   4.7290   7.6385   9.4919

          k =-0.3536 0.3536 0.3536 (   210 PWs)   bands (ev):

    -3.2232   0.7772   7.0695   8.9344

          k = 0.0000 0.0000 0.3536 (   202 PWs)   bands (ev):

    -4.5454   5.3784   6.2756   7.3706

          k =-0.5303 0.1768 0.5303 (   211 PWs)   bands (ev):

    -2.7095   1.7821   3.9866   6.7546

          k = 0.5303 0.5303-0.1768 (   211 PWs)   bands (ev):

    -2.4108   0.8591   4.2355   6.9298

          k =-0.5303 0.5303 0.1768 (   211 PWs)   bands (ev):

    -2.7266   1.6307   5.0473   5.8409

          k = 0.3536 0.3536 0.0000 (   210 PWs)   bands (ev):

    -3.1705   1.4264   4.3960   8.5212

          k =-0.3536 0.3536 0.0000 (   210 PWs)   bands (ev):

    -3.5371   3.3851   4.1800   6.9410

          k = 0.0000 0.0000-0.7071 (   206 PWs)   bands (ev):

    -1.5168   0.3054   5.0004   5.8751

          k = 0.7071-0.0000 0.3536 (   208 PWs)   bands (ev):

    -0.5205  -0.5203   4.1620   4.1621

     highest occupied level (ev):    11.5469

!    total energy              =     -15.81463638 Ry
     Harris-Foulkes estimate   =     -15.81463639 Ry
     estimated scf accuracy    <       0.00000001 Ry

     The total energy is the sum of the following terms:

     one-electron contribution =       6.53793321 Ry
     hartree contribution      =       0.88460794 Ry
     xc contribution           =      -5.06236818 Ry
     ewald contribution        =     -18.17480935 Ry

     convergence has been achieved in  16 iterations

     Forces acting on atoms (cartesian axes, Ry/au):

     atom    1 type  1   force =     0.00000000    0.00000000   -0.21507200
     atom    2 type  1   force =     0.00000000    0.00000000    0.21507200

     Total force =     0.304158     Total SCF correction =     0.000019


     Computing stress (Cartesian axis) and pressure

          total   stress  (Ry/bohr**3)                   (kbar)     P=  575.67
   0.00417577   0.00219931   0.00000000        614.28    323.53      0.00
   0.00219931   0.00417577  -0.00000000        323.53    614.28     -0.00
   0.00000000   0.00000000   0.00338842          0.00      0.00    498.45


     init_run     :      0.06s CPU      0.06s WALL (       1 calls)
     electrons    :      0.95s CPU      0.98s WALL (       1 calls)
     forces       :      0.00s CPU      0.00s WALL (       1 calls)
     stress       :      0.01s CPU      0.02s WALL (       1 calls)

     Called by init_run:
     wfcinit      :      0.04s CPU      0.04s WALL (       1 calls)
     potinit      :      0.00s CPU      0.00s WALL (       1 calls)
     hinit0       :      0.01s CPU      0.01s WALL (       1 calls)

     Called by electrons:
     c_bands      :      0.77s CPU      0.79s WALL (      17 calls)
     sum_band     :      0.16s CPU      0.17s WALL (      17 calls)
     v_of_rho     :      0.01s CPU      0.01s WALL (      17 calls)
     mix_rho      :      0.01s CPU      0.01s WALL (      17 calls)

     Called by c_bands:
     init_us_2    :      0.03s CPU      0.03s WALL (     666 calls)
     cegterg      :      0.74s CPU      0.75s WALL (     306 calls)

     Called by sum_band:

     Called by *egterg:
     h_psi        :      0.68s CPU      0.69s WALL (     897 calls)
     g_psi        :      0.00s CPU      0.00s WALL (     573 calls)
     cdiaghg      :      0.04s CPU      0.04s WALL (     861 calls)

     Called by h_psi:
     h_psi:pot    :      0.67s CPU      0.69s WALL (     897 calls)
     h_psi:calbec :      0.02s CPU      0.02s WALL (     897 calls)
     vloc_psi     :      0.64s CPU      0.65s WALL (     897 calls)
     add_vuspsi   :      0.01s CPU      0.01s WALL (     897 calls)

     General routines
     calbec       :      0.01s CPU      0.02s WALL (     987 calls)
     fft          :      0.01s CPU      0.01s WALL (      56 calls)
     ffts         :      0.00s CPU      0.00s WALL (      17 calls)
     fftw         :      0.69s CPU      0.71s WALL (    7580 calls)

     Parallel routines

     PWSCF        :      1.05s CPU      1.08s WALL


   This run was terminated on:   0:37:56   7Oct2020            

=------------------------------------------------------------------------------=
   JOB DONE.
=------------------------------------------------------------------------------=
