
     Program PWSCF v.6.4.1 starts on  7Oct2020 at  9:40:57 

     This program is part of the open-source Quantum ESPRESSO suite
     for quantum simulation of materials; please cite
         "P. Giannozzi et al., J. Phys.:Condens. Matter 21 395502 (2009);
         "P. Giannozzi et al., J. Phys.:Condens. Matter 29 465901 (2017);
          URL http://www.quantum-espresso.org", 
     in publications or presentations arising from this work. More details at
     http://www.quantum-espresso.org/quote

     Parallel version (MPI), running on     1 processors

     MPI processes distributed on     1 nodes
     Waiting for input...
     Reading input from standard input
Warning: card &IONS ignored
Warning: card / ignored
Warning: card &CELL ignored
Warning: card / ignored

     Current dimensions of program PWSCF are:
     Max number of different atomic species (ntypx) = 10
     Max number of k-points (npk) =  40000
     Max angular momentum in pseudopotentials (lmaxx) =  3

     Subspace diagonalization in iterative solution of the eigenvalue problem:
     a serial algorithm will be used

     Message from routine setup:
     DEPRECATED: symmetry with ibrav=0, use correct ibrav instead

     G-vector sticks info
     --------------------
     sticks:   dense  smooth     PW     G-vecs:    dense   smooth      PW
     Sum         367     367    121                 4645     4645     893



     bravais-lattice index     =            0
     lattice parameter (alat)  =       6.6812  a.u.
     unit-cell volume          =     210.8855 (a.u.)^3
     number of atoms/cell      =            2
     number of atomic types    =            1
     number of electrons       =         8.00
     number of Kohn-Sham states=            4
     kinetic-energy cutoff     =      30.0000  Ry
     charge density cutoff     =     120.0000  Ry
     convergence threshold     =      1.0E-07
     mixing beta               =       0.5000
     number of iterations used =            8  plain     mixing
     Exchange-correlation      = SLA PZ NOGX NOGC ( 1  1  0  0 0 0)

     celldm(1)=   6.681191  celldm(2)=   0.000000  celldm(3)=   0.000000
     celldm(4)=   0.000000  celldm(5)=   0.000000  celldm(6)=   0.000000

     crystal axes: (cart. coord. in units of alat)
               a(1) = (   0.000000   0.707107   0.707107 )  
               a(2) = (   0.707107   0.000000   0.707107 )  
               a(3) = (   0.707107   0.707107   0.000000 )  

     reciprocal axes: (cart. coord. in units 2 pi/alat)
               b(1) = ( -0.707107  0.707107  0.707107 )  
               b(2) = (  0.707107 -0.707107  0.707107 )  
               b(3) = (  0.707107  0.707107 -0.707107 )  


     PseudoPot. # 1 for Ge read from file:
     /home/modeler/qe_pseudo/Ge.pz-bhs.UPF
     MD5 check sum: 4f8fee77de72fb640d24dcbf01bda005
     Pseudo is Norm-conserving, Zval =  4.0
     Generated by new atomic code, or converted to UPF format
     Using radial grid of  291 points,  2 beta functions with: 
                l(1) =   0
                l(2) =   1

     atomic species   valence    mass     pseudopotential
        Ge             4.00    72.63000     Ge( 1.00)

     48 Sym. Ops., with inversion, found (24 have fractional translation)



   Cartesian axes

     site n.     atom                  positions (alat units)
         1           Ge  tau(   1) = (   0.0000000   0.0000000   0.0000000  )
         2           Ge  tau(   2) = (   0.3535534   0.3535534   0.3535534  )

     number of k points=    35
                       cart. coord. in units 2pi/alat
        k(    1) = (   0.0000000   0.0000000   0.0000000), wk =   0.0027435
        k(    2) = (   0.0785674   0.0785674  -0.0785674), wk =   0.0219479
        k(    3) = (   0.1571348   0.1571348  -0.1571348), wk =   0.0219479
        k(    4) = (   0.2357023   0.2357023  -0.2357023), wk =   0.0219479
        k(    5) = (   0.3142697   0.3142697  -0.3142697), wk =   0.0219479
        k(    6) = (   0.1571348   0.0000000   0.0000000), wk =   0.0164609
        k(    7) = (   0.2357023   0.0785674  -0.0785674), wk =   0.0658436
        k(    8) = (   0.3142697   0.1571348  -0.1571348), wk =   0.0658436
        k(    9) = (   0.3928371   0.2357023  -0.2357023), wk =   0.0658436
        k(   10) = (  -0.2357023  -0.3928371   0.3928371), wk =   0.0658436
        k(   11) = (  -0.1571348  -0.3142697   0.3142697), wk =   0.0658436
        k(   12) = (  -0.0785674  -0.2357023   0.2357023), wk =   0.0658436
        k(   13) = (  -0.0000000  -0.1571348   0.1571348), wk =   0.0329218
        k(   14) = (   0.3142697   0.0000000   0.0000000), wk =   0.0164609
        k(   15) = (   0.3928371   0.0785674  -0.0785674), wk =   0.0658436
        k(   16) = (   0.4714045   0.1571348  -0.1571348), wk =   0.0658436
        k(   17) = (  -0.1571348  -0.4714045   0.4714045), wk =   0.0658436
        k(   18) = (  -0.0785674  -0.3928371   0.3928371), wk =   0.0658436
        k(   19) = (   0.0000000  -0.3142697   0.3142697), wk =   0.0329218
        k(   20) = (   0.4714045   0.0000000   0.0000000), wk =   0.0164609
        k(   21) = (   0.5499719   0.0785674  -0.0785674), wk =   0.0658436
        k(   22) = (  -0.0785674  -0.5499719   0.5499719), wk =   0.0658436
        k(   23) = (  -0.0000000  -0.4714045   0.4714045), wk =   0.0329218
        k(   24) = (   0.6285394   0.0000000   0.0000000), wk =   0.0164609
        k(   25) = (   0.0000000  -0.6285394   0.6285394), wk =   0.0329218
        k(   26) = (   0.3142697   0.1571348   0.0000000), wk =   0.0658436
        k(   27) = (   0.3928371   0.2357023  -0.0785674), wk =   0.1316872
        k(   28) = (  -0.2357023  -0.3928371   0.5499719), wk =   0.1316872
        k(   29) = (   0.4714045   0.1571348   0.0000000), wk =   0.0658436
        k(   30) = (  -0.1571348  -0.4714045   0.6285394), wk =   0.1316872
        k(   31) = (  -0.0785674  -0.3928371   0.5499719), wk =   0.1316872
        k(   32) = (   0.0000000  -0.3142697   0.4714045), wk =   0.0658436
        k(   33) = (  -0.0785674  -0.5499719   0.7071068), wk =   0.0658436
        k(   34) = (  -0.0000000  -0.4714045   0.6285394), wk =   0.0658436
        k(   35) = (  -0.0785674  -0.3928371   0.7071068), wk =   0.0658436

     Dense  grid:     4645 G-vectors     FFT dimensions: (  24,  24,  24)

     Estimated max dynamical RAM per process >       4.62 MB

     Initial potential from superposition of free atoms

     starting charge    6.99990, renormalised to    8.00000
     Starting wfcs are    8 randomized atomic wfcs

     total cpu time spent up to now is        0.9 secs

     Self-consistent Calculation

     iteration #  1     ecut=    30.00 Ry     beta= 0.50
     Davidson diagonalization with overlap
     ethr =  1.00E-02,  avg # of iterations =  1.6

     Threshold (ethr) on eigenvalues was too large:
     Diagonalizing with lowered threshold

     Davidson diagonalization with overlap
     ethr =  2.76E-04,  avg # of iterations =  2.6

     total cpu time spent up to now is        1.3 secs

     total energy              =     -15.89831799 Ry
     Harris-Foulkes estimate   =     -15.90176077 Ry
     estimated scf accuracy    <       0.02573344 Ry

     iteration #  2     ecut=    30.00 Ry     beta= 0.50
     Davidson diagonalization with overlap
     ethr =  3.22E-04,  avg # of iterations =  1.0

     total cpu time spent up to now is        1.4 secs

     total energy              =     -15.89766545 Ry
     Harris-Foulkes estimate   =     -15.89855247 Ry
     estimated scf accuracy    <       0.00563818 Ry

     iteration #  3     ecut=    30.00 Ry     beta= 0.50
     Davidson diagonalization with overlap
     ethr =  7.05E-05,  avg # of iterations =  1.0

     total cpu time spent up to now is        1.6 secs

     total energy              =     -15.89778480 Ry
     Harris-Foulkes estimate   =     -15.89779934 Ry
     estimated scf accuracy    <       0.00003321 Ry

     iteration #  4     ecut=    30.00 Ry     beta= 0.50
     Davidson diagonalization with overlap
     ethr =  4.15E-07,  avg # of iterations =  3.1

     total cpu time spent up to now is        1.8 secs

     total energy              =     -15.89781826 Ry
     Harris-Foulkes estimate   =     -15.89781932 Ry
     estimated scf accuracy    <       0.00000186 Ry

     iteration #  5     ecut=    30.00 Ry     beta= 0.50
     Davidson diagonalization with overlap
     ethr =  2.33E-08,  avg # of iterations =  2.1

     total cpu time spent up to now is        2.0 secs

     End of self-consistent calculation

          k = 0.0000 0.0000 0.0000 (   561 PWs)   bands (ev):

    -5.7530   9.9254   9.9254   9.9254

          k = 0.0786 0.0786-0.0786 (   576 PWs)   bands (ev):

    -5.5664   7.9459   9.5000   9.5000

          k = 0.1571 0.1571-0.1571 (   582 PWs)   bands (ev):

    -5.0096   5.0094   8.8110   8.8110

          k = 0.2357 0.2357-0.2357 (   589 PWs)   bands (ev):

    -4.1108   2.3655   8.2885   8.2885

          k = 0.3143 0.3143-0.3143 (   592 PWs)   bands (ev):

    -3.0865   0.4379   8.0210   8.0210

          k = 0.1571 0.0000 0.0000 (   569 PWs)   bands (ev):

    -5.5037   8.4952   8.7589   8.7589

          k = 0.2357 0.0786-0.0786 (   580 PWs)   bands (ev):

    -5.0682   5.9593   8.0244   8.3442

          k = 0.3143 0.1571-0.1571 (   588 PWs)   bands (ev):

    -4.2742   3.2680   7.5668   7.5872

          k = 0.3928 0.2357-0.2357 (   588 PWs)   bands (ev):

    -3.2301   1.0677   6.9380   7.4496

          k =-0.2357-0.3928 0.3928 (   583 PWs)   bands (ev):

    -2.7141   0.2589   6.5427   7.6707

          k =-0.1571-0.3143 0.3143 (   582 PWs)   bands (ev):

    -3.5894   1.7267   6.4673   8.1882

          k =-0.0786-0.2357 0.2357 (   587 PWs)   bands (ev):

    -4.5781   4.1323   6.7630   8.9052

          k =-0.0000-0.1571 0.1571 (   578 PWs)   bands (ev):

    -5.2556   6.6542   7.6571   9.5552

          k = 0.3143 0.0000 0.0000 (   576 PWs)   bands (ev):

    -4.7520   5.8768   7.2322   7.2322

          k = 0.3928 0.0786-0.0786 (   581 PWs)   bands (ev):

    -4.0678   3.9392   6.3427   6.7233

          k = 0.4714 0.1571-0.1571 (   587 PWs)   bands (ev):

    -3.0705   1.8455   5.3080   6.5802

          k =-0.1571-0.4714 0.4714 (   580 PWs)   bands (ev):

    -2.1930   0.5039   4.5741   6.8153

          k =-0.0786-0.3928 0.3928 (   585 PWs)   bands (ev):

    -2.7458   1.3277   4.2804   7.3948

          k = 0.0000-0.3143 0.3143 (   586 PWs)   bands (ev):

    -3.7896   3.0837   4.7575   8.2063

          k = 0.4714 0.0000 0.0000 (   576 PWs)   bands (ev):

    -3.4906   3.1100   6.1291   6.1291

          k = 0.5500 0.0786-0.0786 (   589 PWs)   bands (ev):

    -2.5693   1.6727   5.0477   5.8980

          k =-0.0786-0.5500 0.5500 (   580 PWs)   bands (ev):

    -1.5228   0.4450   3.7453   6.0573

          k =-0.0000-0.4714 0.4714 (   578 PWs)   bands (ev):

    -1.7226   0.6746   3.2303   6.5867

          k = 0.6285 0.0000 0.0000 (   596 PWs)   bands (ev):

    -1.7234   0.5116   5.5622   5.5622

          k = 0.0000-0.6285 0.6285 (   598 PWs)   bands (ev):

    -0.7046  -0.5127   4.6435   5.6175

          k = 0.3143 0.1571 0.0000 (   587 PWs)   bands (ev):

    -4.5095   4.6789   6.1773   8.0581

          k = 0.3928 0.2357-0.0786 (   586 PWs)   bands (ev):

    -3.6080   2.5648   5.3808   7.3522

          k =-0.2357-0.3928 0.5500 (   586 PWs)   bands (ev):

    -2.5740   0.7495   5.1656   6.8382

          k = 0.4714 0.1571 0.0000 (   587 PWs)   bands (ev):

    -3.2676   2.6706   5.1500   6.1492

          k =-0.1571-0.4714 0.6285 (   583 PWs)   bands (ev):

    -2.2106   1.1719   4.2247   5.6818

          k =-0.0786-0.3928 0.5500 (   587 PWs)   bands (ev):

    -1.7078   0.5591   3.6771   5.8544

          k = 0.0000-0.3143 0.4714 (   579 PWs)   bands (ev):

    -2.6317   1.6720   3.8575   6.5119

          k =-0.0786-0.5500 0.7071 (   587 PWs)   bands (ev):

    -1.5590   0.5080   4.7259   5.0098

          k =-0.0000-0.4714 0.6285 (   594 PWs)   bands (ev):

    -0.8369  -0.1167   3.6619   5.1464

          k =-0.0786-0.3928 0.7071 (   587 PWs)   bands (ev):

    -1.1657   0.3248   3.7284   4.6301

     highest occupied level (ev):     9.9254

!    total energy              =     -15.89781853 Ry
     Harris-Foulkes estimate   =     -15.89781855 Ry
     estimated scf accuracy    <       0.00000006 Ry

     The total energy is the sum of the following terms:

     one-electron contribution =       6.53838415 Ry
     hartree contribution      =       0.86090014 Ry
     xc contribution           =      -5.05344997 Ry
     ewald contribution        =     -18.24365286 Ry

     convergence has been achieved in   5 iterations

     Forces acting on atoms (cartesian axes, Ry/au):

     atom    1 type  1   force =     0.00000000    0.00000000   -0.00000000
     atom    2 type  1   force =    -0.00000000   -0.00000000    0.00000000

     Total force =     0.000000     Total SCF correction =     0.000000


     Computing stress (Cartesian axis) and pressure

          total   stress  (Ry/bohr**3)                   (kbar)     P=  532.47
   0.00361967   0.00000000  -0.00000000        532.47      0.00     -0.00
   0.00000000   0.00361967  -0.00000000          0.00    532.47     -0.00
  -0.00000000   0.00000000   0.00361967         -0.00      0.00    532.47


     init_run     :      0.15s CPU      0.59s WALL (       1 calls)
     electrons    :      1.04s CPU      1.06s WALL (       1 calls)
     forces       :      0.01s CPU      0.01s WALL (       1 calls)
     stress       :      0.07s CPU      0.07s WALL (       1 calls)

     Called by init_run:
     wfcinit      :      0.12s CPU      0.35s WALL (       1 calls)
     potinit      :      0.00s CPU      0.00s WALL (       1 calls)
     hinit0       :      0.03s CPU      0.22s WALL (       1 calls)

     Called by electrons:
     c_bands      :      0.87s CPU      0.88s WALL (       6 calls)
     sum_band     :      0.16s CPU      0.17s WALL (       6 calls)
     v_of_rho     :      0.01s CPU      0.01s WALL (       6 calls)
     mix_rho      :      0.00s CPU      0.01s WALL (       6 calls)

     Called by c_bands:
     init_us_2    :      0.06s CPU      0.06s WALL (     525 calls)
     cegterg      :      0.82s CPU      0.83s WALL (     210 calls)

     Called by sum_band:

     Called by *egterg:
     h_psi        :      0.79s CPU      0.81s WALL (     646 calls)
     g_psi        :      0.01s CPU      0.01s WALL (     401 calls)
     cdiaghg      :      0.03s CPU      0.24s WALL (     576 calls)

     Called by h_psi:
     h_psi:pot    :      0.78s CPU      0.81s WALL (     646 calls)
     h_psi:calbec :      0.03s CPU      0.03s WALL (     646 calls)
     vloc_psi     :      0.73s CPU      0.75s WALL (     646 calls)
     add_vuspsi   :      0.02s CPU      0.02s WALL (     646 calls)

     General routines
     calbec       :      0.03s CPU      0.04s WALL (     821 calls)
     fft          :      0.02s CPU      0.21s WALL (      23 calls)
     ffts         :      0.00s CPU      0.00s WALL (       6 calls)
     fftw         :      0.72s CPU      0.74s WALL (    5756 calls)

     Parallel routines

     PWSCF        :      1.29s CPU      2.08s WALL


   This run was terminated on:   9:40:59   7Oct2020            

=------------------------------------------------------------------------------=
   JOB DONE.
=------------------------------------------------------------------------------=
