
     Program PWSCF v.6.4.1 starts on  7Oct2020 at  4: 4:14 

     This program is part of the open-source Quantum ESPRESSO suite
     for quantum simulation of materials; please cite
         "P. Giannozzi et al., J. Phys.:Condens. Matter 21 395502 (2009);
         "P. Giannozzi et al., J. Phys.:Condens. Matter 29 465901 (2017);
          URL http://www.quantum-espresso.org", 
     in publications or presentations arising from this work. More details at
     http://www.quantum-espresso.org/quote

     Parallel version (MPI), running on     1 processors

     MPI processes distributed on     1 nodes
     Waiting for input...
     Reading input from standard input
Warning: card &IONS ignored
Warning: card / ignored
Warning: card &CELL ignored
Warning: card / ignored

     Current dimensions of program PWSCF are:
     Max number of different atomic species (ntypx) = 10
     Max number of k-points (npk) =  40000
     Max angular momentum in pseudopotentials (lmaxx) =  3

     Subspace diagonalization in iterative solution of the eigenvalue problem:
     a serial algorithm will be used

     Message from routine setup:
     DEPRECATED: symmetry with ibrav=0, use correct ibrav instead

     G-vector sticks info
     --------------------
     sticks:   dense  smooth     PW     G-vecs:    dense   smooth      PW
     Sum         649     649    199                11017    11017    1917



     bravais-lattice index     =            0
     lattice parameter (alat)  =       7.7168  a.u.
     unit-cell volume          =     324.9321 (a.u.)^3
     number of atoms/cell      =            2
     number of atomic types    =            1
     number of electrons       =         8.00
     number of Kohn-Sham states=            4
     kinetic-energy cutoff     =      40.0000  Ry
     charge density cutoff     =     160.0000  Ry
     convergence threshold     =      1.0E-07
     mixing beta               =       0.5000
     number of iterations used =            8  plain     mixing
     Exchange-correlation      = SLA PZ NOGX NOGC ( 1  1  0  0 0 0)

     celldm(1)=   7.716775  celldm(2)=   0.000000  celldm(3)=   0.000000
     celldm(4)=   0.000000  celldm(5)=   0.000000  celldm(6)=   0.000000

     crystal axes: (cart. coord. in units of alat)
               a(1) = (   0.000000   0.707107   0.707107 )  
               a(2) = (   0.707107   0.000000   0.707107 )  
               a(3) = (   0.707107   0.707107   0.000000 )  

     reciprocal axes: (cart. coord. in units 2 pi/alat)
               b(1) = ( -0.707107  0.707107  0.707107 )  
               b(2) = (  0.707107 -0.707107  0.707107 )  
               b(3) = (  0.707107  0.707107 -0.707107 )  


     PseudoPot. # 1 for Ge read from file:
     /home/modeler/qe_pseudo/Ge.pz-bhs.UPF
     MD5 check sum: 4f8fee77de72fb640d24dcbf01bda005
     Pseudo is Norm-conserving, Zval =  4.0
     Generated by new atomic code, or converted to UPF format
     Using radial grid of  291 points,  2 beta functions with: 
                l(1) =   0
                l(2) =   1

     atomic species   valence    mass     pseudopotential
        Ge             4.00    72.63000     Ge( 1.00)

     48 Sym. Ops., with inversion, found (24 have fractional translation)



   Cartesian axes

     site n.     atom                  positions (alat units)
         1           Ge  tau(   1) = (   0.0000000   0.0000000   0.0000000  )
         2           Ge  tau(   2) = (   0.3535534   0.3535534   0.3535534  )

     number of k points=    10
                       cart. coord. in units 2pi/alat
        k(    1) = (   0.0000000   0.0000000   0.0000000), wk =   0.0160000
        k(    2) = (   0.1414214   0.1414214  -0.1414214), wk =   0.1280000
        k(    3) = (   0.2828427   0.2828427  -0.2828427), wk =   0.1280000
        k(    4) = (   0.2828427   0.0000000   0.0000000), wk =   0.0960000
        k(    5) = (   0.4242641   0.1414214  -0.1414214), wk =   0.3840000
        k(    6) = (  -0.1414214  -0.4242641   0.4242641), wk =   0.3840000
        k(    7) = (   0.0000000  -0.2828427   0.2828427), wk =   0.1920000
        k(    8) = (   0.5656854   0.0000000   0.0000000), wk =   0.0960000
        k(    9) = (   0.0000000  -0.5656854   0.5656854), wk =   0.1920000
        k(   10) = (  -0.1414214  -0.4242641   0.7071068), wk =   0.3840000

     Dense  grid:    11017 G-vectors     FFT dimensions: (  32,  32,  32)

     Estimated max dynamical RAM per process >       8.73 MB

     Initial potential from superposition of free atoms

     starting charge    6.99990, renormalised to    8.00000
     Starting wfcs are    8 randomized atomic wfcs

     total cpu time spent up to now is        0.1 secs

     Self-consistent Calculation

     iteration #  1     ecut=    40.00 Ry     beta= 0.50
     Davidson diagonalization with overlap
     ethr =  1.00E-02,  avg # of iterations =  1.2

     Threshold (ethr) on eigenvalues was too large:
     Diagonalizing with lowered threshold

     Davidson diagonalization with overlap
     ethr =  3.17E-04,  avg # of iterations =  2.8

     total cpu time spent up to now is        0.3 secs

     total energy              =     -16.00366845 Ry
     Harris-Foulkes estimate   =     -16.00818046 Ry
     estimated scf accuracy    <       0.02663348 Ry

     iteration #  2     ecut=    40.00 Ry     beta= 0.50
     Davidson diagonalization with overlap
     ethr =  3.33E-04,  avg # of iterations =  1.0

     total cpu time spent up to now is        0.3 secs

     total energy              =     -16.00251334 Ry
     Harris-Foulkes estimate   =     -16.00383763 Ry
     estimated scf accuracy    <       0.00620400 Ry

     iteration #  3     ecut=    40.00 Ry     beta= 0.50
     Davidson diagonalization with overlap
     ethr =  7.76E-05,  avg # of iterations =  1.0

     total cpu time spent up to now is        0.4 secs

     total energy              =     -16.00265439 Ry
     Harris-Foulkes estimate   =     -16.00267207 Ry
     estimated scf accuracy    <       0.00003263 Ry

     iteration #  4     ecut=    40.00 Ry     beta= 0.50
     Davidson diagonalization with overlap
     ethr =  4.08E-07,  avg # of iterations =  4.2

     total cpu time spent up to now is        0.5 secs

     total energy              =     -16.00277795 Ry
     Harris-Foulkes estimate   =     -16.00277886 Ry
     estimated scf accuracy    <       0.00000164 Ry

     iteration #  5     ecut=    40.00 Ry     beta= 0.50
     Davidson diagonalization with overlap
     ethr =  2.06E-08,  avg # of iterations =  2.4

     total cpu time spent up to now is        0.6 secs

     total energy              =     -16.00277829 Ry
     Harris-Foulkes estimate   =     -16.00277846 Ry
     estimated scf accuracy    <       0.00000046 Ry

     iteration #  6     ecut=    40.00 Ry     beta= 0.50
     Davidson diagonalization with overlap
     ethr =  5.81E-09,  avg # of iterations =  1.2

     total cpu time spent up to now is        0.7 secs

     End of self-consistent calculation

          k = 0.0000 0.0000 0.0000 (  1411 PWs)   bands (ev):

    -7.3349   4.6392   4.8057   4.8057

          k = 0.1414 0.1414-0.1414 (  1387 PWs)   bands (ev):

    -6.9106   1.0259   4.2063   4.2063

          k = 0.2828 0.2828-0.2828 (  1392 PWs)   bands (ev):

    -5.8272  -1.9488   3.6215   3.6215

          k = 0.2828 0.0000 0.0000 (  1375 PWs)   bands (ev):

    -6.7613   0.9445   3.3541   3.3541

          k = 0.4243 0.1414-0.1414 (  1403 PWs)   bands (ev):

    -5.8277  -1.4036   2.1229   2.8353

          k =-0.1414-0.4243 0.4243 (  1382 PWs)   bands (ev):

    -5.1563  -2.5296   1.3666   3.0806

          k = 0.0000-0.2828 0.2828 (  1384 PWs)   bands (ev):

    -6.2299  -0.6431   1.9215   3.9090

          k = 0.5657 0.0000 0.0000 (  1391 PWs)   bands (ev):

    -5.0725  -2.4094   2.1648   2.1648

          k = 0.0000-0.5657 0.5657 (  1384 PWs)   bands (ev):

    -4.1205  -3.4943   1.0190   2.2708

          k =-0.1414-0.4243 0.7071 (  1382 PWs)   bands (ev):

    -4.7502  -2.7504   1.0641   1.9742

     highest occupied level (ev):     4.8057

!    total energy              =     -16.00277831 Ry
     Harris-Foulkes estimate   =     -16.00277832 Ry
     estimated scf accuracy    <       0.00000003 Ry

     The total energy is the sum of the following terms:

     one-electron contribution =       3.13146307 Ry
     hartree contribution      =       1.25668687 Ry
     xc contribution           =      -4.59555781 Ry
     ewald contribution        =     -15.79537044 Ry

     convergence has been achieved in   6 iterations

     Forces acting on atoms (cartesian axes, Ry/au):

     atom    1 type  1   force =     0.00000000    0.00000000    0.00000000
     atom    2 type  1   force =     0.00000000    0.00000000    0.00000000

     Total force =     0.000000     Total SCF correction =     0.000000


     Computing stress (Cartesian axis) and pressure

          total   stress  (Ry/bohr**3)                   (kbar)     P=  -44.55
  -0.00030284  -0.00000000  -0.00000000        -44.55     -0.00     -0.00
  -0.00000000  -0.00030284  -0.00000000         -0.00    -44.55     -0.00
  -0.00000000  -0.00000000  -0.00030284         -0.00     -0.00    -44.55


     init_run     :      0.08s CPU      0.09s WALL (       1 calls)
     electrons    :      0.58s CPU      0.59s WALL (       1 calls)
     forces       :      0.01s CPU      0.01s WALL (       1 calls)
     stress       :      0.05s CPU      0.06s WALL (       1 calls)

     Called by init_run:
     wfcinit      :      0.05s CPU      0.06s WALL (       1 calls)
     potinit      :      0.00s CPU      0.00s WALL (       1 calls)
     hinit0       :      0.02s CPU      0.02s WALL (       1 calls)

     Called by electrons:
     c_bands      :      0.45s CPU      0.46s WALL (       7 calls)
     sum_band     :      0.10s CPU      0.10s WALL (       7 calls)
     v_of_rho     :      0.02s CPU      0.02s WALL (       7 calls)
     mix_rho      :      0.01s CPU      0.01s WALL (       7 calls)

     Called by c_bands:
     init_us_2    :      0.04s CPU      0.04s WALL (     170 calls)
     cegterg      :      0.42s CPU      0.43s WALL (      70 calls)

     Called by sum_band:

     Called by *egterg:
     h_psi        :      0.38s CPU      0.39s WALL (     218 calls)
     g_psi        :      0.01s CPU      0.01s WALL (     138 calls)
     cdiaghg      :      0.01s CPU      0.01s WALL (     198 calls)

     Called by h_psi:
     h_psi:pot    :      0.38s CPU      0.38s WALL (     218 calls)
     h_psi:calbec :      0.02s CPU      0.02s WALL (     218 calls)
     vloc_psi     :      0.34s CPU      0.34s WALL (     218 calls)
     add_vuspsi   :      0.02s CPU      0.02s WALL (     218 calls)

     General routines
     calbec       :      0.02s CPU      0.02s WALL (     268 calls)
     fft          :      0.01s CPU      0.01s WALL (      26 calls)
     ffts         :      0.00s CPU      0.00s WALL (       7 calls)
     fftw         :      0.29s CPU      0.30s WALL (    1890 calls)

     Parallel routines

     PWSCF        :      0.75s CPU      0.78s WALL


   This run was terminated on:   4: 4:15   7Oct2020            

=------------------------------------------------------------------------------=
   JOB DONE.
=------------------------------------------------------------------------------=
