
     Program PWSCF v.6.4.1 starts on  2Oct2020 at  0:15:43 

     This program is part of the open-source Quantum ESPRESSO suite
     for quantum simulation of materials; please cite
         "P. Giannozzi et al., J. Phys.:Condens. Matter 21 395502 (2009);
         "P. Giannozzi et al., J. Phys.:Condens. Matter 29 465901 (2017);
          URL http://www.quantum-espresso.org", 
     in publications or presentations arising from this work. More details at
     http://www.quantum-espresso.org/quote

     Parallel version (MPI), running on     1 processors

     MPI processes distributed on     1 nodes
     Waiting for input...
     Reading input from standard input
Warning: card &IONS ignored
Warning: card / ignored
Warning: card &CELL ignored
Warning: card / ignored

     Current dimensions of program PWSCF are:
     Max number of different atomic species (ntypx) = 10
     Max number of k-points (npk) =  40000
     Max angular momentum in pseudopotentials (lmaxx) =  3

     Subspace diagonalization in iterative solution of the eigenvalue problem:
     a serial algorithm will be used

     Message from routine setup:
     DEPRECATED: symmetry with ibrav=0, use correct ibrav instead

     G-vector sticks info
     --------------------
     sticks:   dense  smooth     PW     G-vecs:    dense   smooth      PW
     Sum         121     121     55                  893      893     259



     bravais-lattice index     =            0
     lattice parameter (alat)  =       6.6812  a.u.
     unit-cell volume          =     210.8855 (a.u.)^3
     number of atoms/cell      =            2
     number of atomic types    =            1
     number of electrons       =         8.00
     number of Kohn-Sham states=            4
     kinetic-energy cutoff     =      10.0000  Ry
     charge density cutoff     =      40.0000  Ry
     convergence threshold     =      1.0E-07
     mixing beta               =       0.5000
     number of iterations used =            8  plain     mixing
     Exchange-correlation      = SLA PZ NOGX NOGC ( 1  1  0  0 0 0)

     celldm(1)=   6.681191  celldm(2)=   0.000000  celldm(3)=   0.000000
     celldm(4)=   0.000000  celldm(5)=   0.000000  celldm(6)=   0.000000

     crystal axes: (cart. coord. in units of alat)
               a(1) = (   0.000000   0.707107   0.707107 )  
               a(2) = (   0.707107   0.000000   0.707107 )  
               a(3) = (   0.707107   0.707107   0.000000 )  

     reciprocal axes: (cart. coord. in units 2 pi/alat)
               b(1) = ( -0.707107  0.707107  0.707107 )  
               b(2) = (  0.707107 -0.707107  0.707107 )  
               b(3) = (  0.707107  0.707107 -0.707107 )  


     PseudoPot. # 1 for Ge read from file:
     /home/modeler/qe_pseudo/Ge.pz-bhs.UPF
     MD5 check sum: 4f8fee77de72fb640d24dcbf01bda005
     Pseudo is Norm-conserving, Zval =  4.0
     Generated by new atomic code, or converted to UPF format
     Using radial grid of  291 points,  2 beta functions with: 
                l(1) =   0
                l(2) =   1

     atomic species   valence    mass     pseudopotential
        Ge             4.00    72.63000     Ge( 1.00)

     48 Sym. Ops., with inversion, found (24 have fractional translation)



   Cartesian axes

     site n.     atom                  positions (alat units)
         1           Ge  tau(   1) = (   0.0000000   0.0000000   0.0000000  )
         2           Ge  tau(   2) = (   0.3535534   0.3535534   0.3535534  )

     number of k points=    29
                       cart. coord. in units 2pi/alat
        k(    1) = (   0.0000000   0.0000000   0.0000000), wk =   0.0039062
        k(    2) = (   0.0883883   0.0883883  -0.0883883), wk =   0.0312500
        k(    3) = (   0.1767767   0.1767767  -0.1767767), wk =   0.0312500
        k(    4) = (   0.2651650   0.2651650  -0.2651650), wk =   0.0312500
        k(    5) = (  -0.3535534  -0.3535534   0.3535534), wk =   0.0156250
        k(    6) = (   0.1767767   0.0000000   0.0000000), wk =   0.0234375
        k(    7) = (   0.2651650   0.0883883  -0.0883883), wk =   0.0937500
        k(    8) = (   0.3535534   0.1767767  -0.1767767), wk =   0.0937500
        k(    9) = (  -0.2651650  -0.4419417   0.4419417), wk =   0.0937500
        k(   10) = (  -0.1767767  -0.3535534   0.3535534), wk =   0.0937500
        k(   11) = (  -0.0883883  -0.2651650   0.2651650), wk =   0.0937500
        k(   12) = (   0.0000000  -0.1767767   0.1767767), wk =   0.0468750
        k(   13) = (   0.3535534   0.0000000   0.0000000), wk =   0.0234375
        k(   14) = (   0.4419417   0.0883883  -0.0883883), wk =   0.0937500
        k(   15) = (  -0.1767767  -0.5303301   0.5303301), wk =   0.0937500
        k(   16) = (  -0.0883883  -0.4419417   0.4419417), wk =   0.0937500
        k(   17) = (   0.0000000  -0.3535534   0.3535534), wk =   0.0468750
        k(   18) = (   0.5303301   0.0000000   0.0000000), wk =   0.0234375
        k(   19) = (  -0.0883883  -0.6187184   0.6187184), wk =   0.0937500
        k(   20) = (   0.0000000  -0.5303301   0.5303301), wk =   0.0468750
        k(   21) = (  -0.7071068   0.0000000   0.0000000), wk =   0.0117188
        k(   22) = (   0.3535534   0.1767767   0.0000000), wk =   0.0937500
        k(   23) = (  -0.2651650  -0.4419417   0.6187184), wk =   0.1875000
        k(   24) = (  -0.1767767  -0.3535534   0.5303301), wk =   0.0937500
        k(   25) = (  -0.1767767  -0.5303301   0.7071068), wk =   0.0937500
        k(   26) = (  -0.0883883  -0.4419417   0.6187184), wk =   0.1875000
        k(   27) = (   0.0000000  -0.3535534   0.5303301), wk =   0.0937500
        k(   28) = (  -0.7071068   0.1767767   0.0000000), wk =   0.0468750
        k(   29) = (  -0.7071068   0.3535534   0.0000000), wk =   0.0234375

     Dense  grid:      893 G-vectors     FFT dimensions: (  16,  16,  16)

     Estimated max dynamical RAM per process >       0.99 MB

     Initial potential from superposition of free atoms

     starting charge    6.99990, renormalised to    8.00000
     Starting wfcs are    8 randomized atomic wfcs

     total cpu time spent up to now is        0.1 secs

     Self-consistent Calculation

     iteration #  1     ecut=    10.00 Ry     beta= 0.50
     Davidson diagonalization with overlap
     ethr =  1.00E-02,  avg # of iterations =  1.6

     Threshold (ethr) on eigenvalues was too large:
     Diagonalizing with lowered threshold

     Davidson diagonalization with overlap
     ethr =  2.87E-04,  avg # of iterations =  2.7

     total cpu time spent up to now is        0.1 secs

     total energy              =     -15.86070411 Ry
     Harris-Foulkes estimate   =     -15.86316383 Ry
     estimated scf accuracy    <       0.02633771 Ry

     iteration #  2     ecut=    10.00 Ry     beta= 0.50
     Davidson diagonalization with overlap
     ethr =  3.29E-04,  avg # of iterations =  1.0

     total cpu time spent up to now is        0.1 secs

     total energy              =     -15.86019815 Ry
     Harris-Foulkes estimate   =     -15.86088651 Ry
     estimated scf accuracy    <       0.00595672 Ry

     iteration #  3     ecut=    10.00 Ry     beta= 0.50
     Davidson diagonalization with overlap
     ethr =  7.45E-05,  avg # of iterations =  1.0

     total cpu time spent up to now is        0.2 secs

     total energy              =     -15.86029564 Ry
     Harris-Foulkes estimate   =     -15.86031259 Ry
     estimated scf accuracy    <       0.00003457 Ry

     iteration #  4     ecut=    10.00 Ry     beta= 0.50
     Davidson diagonalization with overlap
     ethr =  4.32E-07,  avg # of iterations =  3.0

     total cpu time spent up to now is        0.2 secs

     End of self-consistent calculation

          k = 0.0000 0.0000 0.0000 (   113 PWs)   bands (ev):

    -5.7002   9.9680   9.9680   9.9680

          k = 0.0884 0.0884-0.0884 (   116 PWs)   bands (ev):

    -5.4697   7.6348   9.4575   9.4575

          k = 0.1768 0.1768-0.1768 (   113 PWs)   bands (ev):

    -4.7728   4.3622   8.7086   8.7086

          k = 0.2652 0.2652-0.2652 (   114 PWs)   bands (ev):

    -3.6685   1.5644   8.2075   8.2075

          k =-0.3536-0.3536 0.3536 (   108 PWs)   bands (ev):

    -2.8166   0.1452   8.0478   8.0478

          k = 0.1768 0.0000 0.0000 (   117 PWs)   bands (ev):

    -5.3921   8.2530   8.6007   8.6007

          k = 0.2652 0.0884-0.0884 (   115 PWs)   bands (ev):

    -4.8491   5.4305   7.8198   8.0485

          k = 0.3536 0.1768-0.1768 (   112 PWs)   bands (ev):

    -3.8498   2.5318   7.1730   7.4225

          k =-0.2652-0.4419 0.4419 (   112 PWs)   bands (ev):

    -2.7250   0.4849   6.5107   7.4684

          k =-0.1768-0.3536 0.3536 (   114 PWs)   bands (ev):

    -3.0620   1.0104   6.2217   7.9271

          k =-0.0884-0.2652 0.2652 (   112 PWs)   bands (ev):

    -4.2280   3.4468   6.4032   8.7046

          k = 0.0000-0.1768 0.1768 (   117 PWs)   bands (ev):

    -5.0821   6.2157   7.3092   9.4841

          k = 0.3536 0.0000 0.0000 (   125 PWs)   bands (ev):

    -4.4585   5.2309   6.9544   6.9544

          k = 0.4419 0.0884-0.0884 (   116 PWs)   bands (ev):

    -3.5798   3.2024   5.8229   6.4868

          k =-0.1768-0.5303 0.5303 (   110 PWs)   bands (ev):

    -2.3808   1.1687   4.6213   6.4966

          k =-0.0884-0.4419 0.4419 (   111 PWs)   bands (ev):

    -2.1002   0.7867   3.9614   6.9768

          k = 0.0000-0.3536 0.3536 (   117 PWs)   bands (ev):

    -3.2514   2.4173   4.2368   7.8251

          k = 0.5303 0.0000 0.0000 (   113 PWs)   bands (ev):

    -2.8439   2.1583   5.9008   5.9008

          k =-0.0884-0.6187 0.6187 (   112 PWs)   bands (ev):

    -1.6923   0.6965   4.6672   5.7896

          k = 0.0000-0.5303 0.5303 (   110 PWs)   bands (ev):

    -1.0662   0.1456   3.4152   6.1711

          k =-0.7071 0.0000 0.0000 (   116 PWs)   bands (ev):

    -0.6165  -0.6165   5.5402   5.5402

          k = 0.3536 0.1768 0.0000 (   114 PWs)   bands (ev):

    -4.1367   4.0641   5.7263   7.6878

          k =-0.2652-0.4419 0.6187 (   114 PWs)   bands (ev):

    -3.0316   1.8626   4.9458   6.8903

          k =-0.1768-0.3536 0.5303 (   112 PWs)   bands (ev):

    -2.1479   0.5171   4.8050   6.5279

          k =-0.1768-0.5303 0.7071 (   107 PWs)   bands (ev):

    -2.5603   1.8657   4.7938   5.6391

          k =-0.0884-0.4419 0.6187 (   108 PWs)   bands (ev):

    -1.4156   0.5442   3.7897   5.3467

          k = 0.0000-0.3536 0.5303 (   109 PWs)   bands (ev):

    -1.8674   1.0207   3.5467   5.9014

          k =-0.7071 0.1768 0.0000 (   108 PWs)   bands (ev):

    -0.4764  -0.4764   4.6935   4.6935

          k =-0.7071 0.3536 0.0000 (   108 PWs)   bands (ev):

    -0.3328  -0.3328   4.0442   4.0442

     highest occupied level (ev):     9.9680

!    total energy              =     -15.86032242 Ry
     Harris-Foulkes estimate   =     -15.86032241 Ry
     estimated scf accuracy    <       0.00000005 Ry

     The total energy is the sum of the following terms:

     one-electron contribution =       6.57975205 Ry
     hartree contribution      =       0.85111353 Ry
     xc contribution           =      -5.04753517 Ry
     ewald contribution        =     -18.24365282 Ry

     convergence has been achieved in   4 iterations

     Forces acting on atoms (cartesian axes, Ry/au):

     atom    1 type  1   force =    -0.00000000    0.00000000    0.00000000
     atom    2 type  1   force =     0.00000000   -0.00000000   -0.00000000

     Total force =     0.000000     Total SCF correction =     0.000000


     Computing stress (Cartesian axis) and pressure

          total   stress  (Ry/bohr**3)                   (kbar)     P=  479.74
   0.00326119  -0.00000000  -0.00000000        479.74     -0.00     -0.00
  -0.00000000   0.00326119   0.00000000         -0.00    479.74      0.00
  -0.00000000  -0.00000000   0.00326119         -0.00     -0.00    479.74


     init_run     :      0.03s CPU      0.03s WALL (       1 calls)
     electrons    :      0.15s CPU      0.15s WALL (       1 calls)
     forces       :      0.00s CPU      0.00s WALL (       1 calls)
     stress       :      0.01s CPU      0.01s WALL (       1 calls)

     Called by init_run:
     wfcinit      :      0.02s CPU      0.02s WALL (       1 calls)
     potinit      :      0.00s CPU      0.00s WALL (       1 calls)
     hinit0       :      0.01s CPU      0.01s WALL (       1 calls)

     Called by electrons:
     c_bands      :      0.12s CPU      0.13s WALL (       5 calls)
     sum_band     :      0.02s CPU      0.02s WALL (       5 calls)
     v_of_rho     :      0.00s CPU      0.00s WALL (       5 calls)
     mix_rho      :      0.00s CPU      0.00s WALL (       5 calls)

     Called by c_bands:
     init_us_2    :      0.01s CPU      0.01s WALL (     377 calls)
     cegterg      :      0.12s CPU      0.12s WALL (     145 calls)

     Called by sum_band:

     Called by *egterg:
     h_psi        :      0.10s CPU      0.10s WALL (     445 calls)
     g_psi        :      0.00s CPU      0.00s WALL (     271 calls)
     cdiaghg      :      0.01s CPU      0.01s WALL (     387 calls)

     Called by h_psi:
     h_psi:pot    :      0.10s CPU      0.10s WALL (     445 calls)
     h_psi:calbec :      0.01s CPU      0.01s WALL (     445 calls)
     vloc_psi     :      0.09s CPU      0.09s WALL (     445 calls)
     add_vuspsi   :      0.00s CPU      0.00s WALL (     445 calls)

     General routines
     calbec       :      0.01s CPU      0.01s WALL (     590 calls)
     fft          :      0.00s CPU      0.00s WALL (      20 calls)
     ffts         :      0.00s CPU      0.00s WALL (       5 calls)
     fftw         :      0.07s CPU      0.07s WALL (    3934 calls)

     Parallel routines

     PWSCF        :      0.23s CPU      0.23s WALL


   This run was terminated on:   0:15:43   2Oct2020            

=------------------------------------------------------------------------------=
   JOB DONE.
=------------------------------------------------------------------------------=
