
     Program PWSCF v.6.4.1 starts on  7Oct2020 at  4: 4:12 

     This program is part of the open-source Quantum ESPRESSO suite
     for quantum simulation of materials; please cite
         "P. Giannozzi et al., J. Phys.:Condens. Matter 21 395502 (2009);
         "P. Giannozzi et al., J. Phys.:Condens. Matter 29 465901 (2017);
          URL http://www.quantum-espresso.org", 
     in publications or presentations arising from this work. More details at
     http://www.quantum-espresso.org/quote

     Parallel version (MPI), running on     1 processors

     MPI processes distributed on     1 nodes
     Waiting for input...
     Reading input from standard input
Warning: card &IONS ignored
Warning: card / ignored
Warning: card &CELL ignored
Warning: card / ignored

     Current dimensions of program PWSCF are:
     Max number of different atomic species (ntypx) = 10
     Max number of k-points (npk) =  40000
     Max angular momentum in pseudopotentials (lmaxx) =  3

     Subspace diagonalization in iterative solution of the eigenvalue problem:
     a serial algorithm will be used

     Message from routine setup:
     DEPRECATED: symmetry with ibrav=0, use correct ibrav instead

     G-vector sticks info
     --------------------
     sticks:   dense  smooth     PW     G-vecs:    dense   smooth      PW
     Sum         649     649    199                10849    10849    1837



     bravais-lattice index     =            0
     lattice parameter (alat)  =       7.6500  a.u.
     unit-cell volume          =     316.5651 (a.u.)^3
     number of atoms/cell      =            2
     number of atomic types    =            1
     number of electrons       =         8.00
     number of Kohn-Sham states=            4
     kinetic-energy cutoff     =      40.0000  Ry
     charge density cutoff     =     160.0000  Ry
     convergence threshold     =      1.0E-07
     mixing beta               =       0.5000
     number of iterations used =            8  plain     mixing
     Exchange-correlation      = SLA PZ NOGX NOGC ( 1  1  0  0 0 0)

     celldm(1)=   7.649963  celldm(2)=   0.000000  celldm(3)=   0.000000
     celldm(4)=   0.000000  celldm(5)=   0.000000  celldm(6)=   0.000000

     crystal axes: (cart. coord. in units of alat)
               a(1) = (   0.000000   0.707107   0.707107 )  
               a(2) = (   0.707107   0.000000   0.707107 )  
               a(3) = (   0.707107   0.707107   0.000000 )  

     reciprocal axes: (cart. coord. in units 2 pi/alat)
               b(1) = ( -0.707107  0.707107  0.707107 )  
               b(2) = (  0.707107 -0.707107  0.707107 )  
               b(3) = (  0.707107  0.707107 -0.707107 )  


     PseudoPot. # 1 for Ge read from file:
     /home/modeler/qe_pseudo/Ge.pz-bhs.UPF
     MD5 check sum: 4f8fee77de72fb640d24dcbf01bda005
     Pseudo is Norm-conserving, Zval =  4.0
     Generated by new atomic code, or converted to UPF format
     Using radial grid of  291 points,  2 beta functions with: 
                l(1) =   0
                l(2) =   1

     atomic species   valence    mass     pseudopotential
        Ge             4.00    72.63000     Ge( 1.00)

     48 Sym. Ops., with inversion, found (24 have fractional translation)



   Cartesian axes

     site n.     atom                  positions (alat units)
         1           Ge  tau(   1) = (   0.0000000   0.0000000   0.0000000  )
         2           Ge  tau(   2) = (   0.3535534   0.3535534   0.3535534  )

     number of k points=    10
                       cart. coord. in units 2pi/alat
        k(    1) = (   0.0000000   0.0000000   0.0000000), wk =   0.0160000
        k(    2) = (   0.1414214   0.1414214  -0.1414214), wk =   0.1280000
        k(    3) = (   0.2828427   0.2828427  -0.2828427), wk =   0.1280000
        k(    4) = (   0.2828427   0.0000000   0.0000000), wk =   0.0960000
        k(    5) = (   0.4242641   0.1414214  -0.1414214), wk =   0.3840000
        k(    6) = (  -0.1414214  -0.4242641   0.4242641), wk =   0.3840000
        k(    7) = (   0.0000000  -0.2828427   0.2828427), wk =   0.1920000
        k(    8) = (   0.5656854   0.0000000   0.0000000), wk =   0.0960000
        k(    9) = (   0.0000000  -0.5656854   0.5656854), wk =   0.1920000
        k(   10) = (  -0.1414214  -0.4242641   0.7071068), wk =   0.3840000

     Dense  grid:    10849 G-vectors     FFT dimensions: (  32,  32,  32)

     Estimated max dynamical RAM per process >       8.61 MB

     Initial potential from superposition of free atoms

     starting charge    6.99990, renormalised to    8.00000
     Starting wfcs are    8 randomized atomic wfcs

     total cpu time spent up to now is        0.1 secs

     Self-consistent Calculation

     iteration #  1     ecut=    40.00 Ry     beta= 0.50
     Davidson diagonalization with overlap
     ethr =  1.00E-02,  avg # of iterations =  1.3

     Threshold (ethr) on eigenvalues was too large:
     Diagonalizing with lowered threshold

     Davidson diagonalization with overlap
     ethr =  3.13E-04,  avg # of iterations =  2.7

     total cpu time spent up to now is        0.3 secs

     total energy              =     -16.00601416 Ry
     Harris-Foulkes estimate   =     -16.01024747 Ry
     estimated scf accuracy    <       0.02642419 Ry

     iteration #  2     ecut=    40.00 Ry     beta= 0.50
     Davidson diagonalization with overlap
     ethr =  3.30E-04,  avg # of iterations =  1.0

     total cpu time spent up to now is        0.4 secs

     total energy              =     -16.00491687 Ry
     Harris-Foulkes estimate   =     -16.00619114 Ry
     estimated scf accuracy    <       0.00622292 Ry

     iteration #  3     ecut=    40.00 Ry     beta= 0.50
     Davidson diagonalization with overlap
     ethr =  7.78E-05,  avg # of iterations =  1.0

     total cpu time spent up to now is        0.4 secs

     total energy              =     -16.00503374 Ry
     Harris-Foulkes estimate   =     -16.00504600 Ry
     estimated scf accuracy    <       0.00002219 Ry

     iteration #  4     ecut=    40.00 Ry     beta= 0.50
     Davidson diagonalization with overlap
     ethr =  2.77E-07,  avg # of iterations =  4.6

     total cpu time spent up to now is        0.6 secs

     total energy              =     -16.00506920 Ry
     Harris-Foulkes estimate   =     -16.00506937 Ry
     estimated scf accuracy    <       0.00000068 Ry

     iteration #  5     ecut=    40.00 Ry     beta= 0.50
     Davidson diagonalization with overlap
     ethr =  8.56E-09,  avg # of iterations =  2.2

     total cpu time spent up to now is        0.6 secs

     End of self-consistent calculation

          k = 0.0000 0.0000 0.0000 (  1363 PWs)   bands (ev):

    -7.2573   5.0556   5.0556   5.0556

          k = 0.1414 0.1414-0.1414 (  1363 PWs)   bands (ev):

    -6.8230   1.2838   4.4379   4.4379

          k = 0.2828 0.2828-0.2828 (  1362 PWs)   bands (ev):

    -5.7087  -1.7806   3.8392   3.8392

          k = 0.2828 0.0000 0.0000 (  1351 PWs)   bands (ev):

    -6.6704   1.2369   3.5582   3.5582

          k = 0.4243 0.1414-0.1414 (  1349 PWs)   bands (ev):

    -5.7126  -1.1898   2.3030   3.0272

          k =-0.1414-0.4243 0.4243 (  1360 PWs)   bands (ev):

    -5.0184  -2.3567   1.5269   3.2811

          k = 0.0000-0.2828 0.2828 (  1358 PWs)   bands (ev):

    -6.1251  -0.4092   2.0847   4.1344

          k = 0.5657 0.0000 0.0000 (  1351 PWs)   bands (ev):

    -4.9402  -2.2066   2.3386   2.3386

          k = 0.0000-0.5657 0.5657 (  1348 PWs)   bands (ev):

    -3.9576  -3.3228   1.1524   2.4480

          k =-0.1414-0.4243 0.7071 (  1356 PWs)   bands (ev):

    -4.6053  -2.5573   1.2009   2.1362

     highest occupied level (ev):     5.0556

!    total energy              =     -16.00506926 Ry
     Harris-Foulkes estimate   =     -16.00506927 Ry
     estimated scf accuracy    <       0.00000007 Ry

     The total energy is the sum of the following terms:

     one-electron contribution =       3.31786174 Ry
     hartree contribution      =       1.23065508 Ry
     xc contribution           =      -4.62026482 Ry
     ewald contribution        =     -15.93332127 Ry

     convergence has been achieved in   5 iterations

     Forces acting on atoms (cartesian axes, Ry/au):

     atom    1 type  1   force =     0.00000000    0.00000000    0.00000000
     atom    2 type  1   force =     0.00000000    0.00000000    0.00000000

     Total force =     0.000000     Total SCF correction =     0.000000


     Computing stress (Cartesian axis) and pressure

          total   stress  (Ry/bohr**3)                   (kbar)     P=  -37.04
  -0.00025182  -0.00000000   0.00000000        -37.04     -0.00      0.00
  -0.00000000  -0.00025182   0.00000000         -0.00    -37.04      0.00
   0.00000000   0.00000000  -0.00025182          0.00      0.00    -37.04


     init_run     :      0.09s CPU      0.10s WALL (       1 calls)
     electrons    :      0.51s CPU      0.51s WALL (       1 calls)
     forces       :      0.01s CPU      0.01s WALL (       1 calls)
     stress       :      0.06s CPU      0.06s WALL (       1 calls)

     Called by init_run:
     wfcinit      :      0.06s CPU      0.06s WALL (       1 calls)
     potinit      :      0.00s CPU      0.00s WALL (       1 calls)
     hinit0       :      0.02s CPU      0.02s WALL (       1 calls)

     Called by electrons:
     c_bands      :      0.40s CPU      0.40s WALL (       6 calls)
     sum_band     :      0.09s CPU      0.09s WALL (       6 calls)
     v_of_rho     :      0.01s CPU      0.01s WALL (       6 calls)
     mix_rho      :      0.01s CPU      0.01s WALL (       6 calls)

     Called by c_bands:
     init_us_2    :      0.04s CPU      0.04s WALL (     150 calls)
     cegterg      :      0.37s CPU      0.37s WALL (      60 calls)

     Called by sum_band:

     Called by *egterg:
     h_psi        :      0.34s CPU      0.34s WALL (     198 calls)
     g_psi        :      0.00s CPU      0.00s WALL (     128 calls)
     cdiaghg      :      0.01s CPU      0.01s WALL (     178 calls)

     Called by h_psi:
     h_psi:pot    :      0.34s CPU      0.34s WALL (     198 calls)
     h_psi:calbec :      0.02s CPU      0.02s WALL (     198 calls)
     vloc_psi     :      0.30s CPU      0.30s WALL (     198 calls)
     add_vuspsi   :      0.02s CPU      0.02s WALL (     198 calls)

     General routines
     calbec       :      0.02s CPU      0.02s WALL (     248 calls)
     fft          :      0.01s CPU      0.01s WALL (      23 calls)
     ffts         :      0.00s CPU      0.00s WALL (       6 calls)
     fftw         :      0.26s CPU      0.26s WALL (    1662 calls)

     Parallel routines

     PWSCF        :      0.69s CPU      0.71s WALL


   This run was terminated on:   4: 4:12   7Oct2020            

=------------------------------------------------------------------------------=
   JOB DONE.
=------------------------------------------------------------------------------=
