
     Program BANDS v.6.4.1 starts on  7Oct2020 at 20: 2:14 

     This program is part of the open-source Quantum ESPRESSO suite
     for quantum simulation of materials; please cite
         "P. Giannozzi et al., J. Phys.:Condens. Matter 21 395502 (2009);
         "P. Giannozzi et al., J. Phys.:Condens. Matter 29 465901 (2017);
          URL http://www.quantum-espresso.org", 
     in publications or presentations arising from this work. More details at
     http://www.quantum-espresso.org/quote

     Parallel version (MPI), running on     1 processors

     MPI processes distributed on     1 nodes

     Reading data from directory:
     /home/modeler/Lab2/test/pwscf.save/

     IMPORTANT: XC functional enforced from input :
     Exchange-correlation      = PZ ( 1  1  0  0 0 0)
     Any further DFT definition will be discarded
     Please, verify this is what you really want


     G-vector sticks info
     --------------------
     sticks:   dense  smooth     PW     G-vecs:    dense   smooth      PW
     Sum         499     499    151                 6975     6975    1243

     high-symmetry point: -1.0000 0.5000 0.0000   x coordinate   0.0000
     high-symmetry point:  0.0000 0.0000 0.0000   x coordinate   1.1180
     high-symmetry point: -1.0000 0.0000 0.0000   x coordinate   2.1180
     high-symmetry point: -1.0000 0.5000 0.0000   x coordinate   2.6180
     high-symmetry point: -0.5000 0.5000 0.5000   x coordinate   3.3251
     high-symmetry point:  0.0000 0.0000 0.0000   x coordinate   4.1912

     Plottable bands (eV) written to file Bandx.dat.gnu
     Bands written to file Bandx.dat

 **************************************************************************

                    xk=(  -1.00000,   0.50000,   0.00000  )

     zone border point and non-symmorphic group 
     symmetry decomposition not available

 **************************************************************************

 **************************************************************************

                    xk=(  -0.96667,   0.48333,   0.00000  )

     point group C_s (m)    
     there are  2 classes
     the character table:

       E     s    
A'     1.00  1.00
A''    1.00 -1.00

     the symmetry operations in each class and the name of the first element:

     E        1
                                                                 
     s        2
                                                                 

     Band symmetry, C_s (m)     point group:

     e(  1 -  1) =     -3.76245  eV     1   --> A'             
     e(  2 -  2) =     -3.46574  eV     1   --> A''            
     e(  3 -  3) =      1.25656  eV     1   --> A'             
     e(  4 -  4) =      1.45865  eV     1   --> A''            
     e(  5 -  5) =      9.31649  eV     1   --> A''            
     e(  6 -  6) =      9.32584  eV     1   --> A'             
     e(  7 -  7) =      9.55746  eV     1   --> A''            
     e(  8 -  8) =     10.04581  eV     1   --> A'             
     e(  9 -  9) =     15.38803  eV     1   --> A'             
     e( 10 - 10) =     15.96308  eV     1   --> A''            

 **************************************************************************

 **************************************************************************

                    xk=(  -0.93333,   0.46667,   0.00000  )

     Band symmetry, C_s (m)     point group:

     e(  1 -  1) =     -3.92064  eV     1   --> A'             
     e(  2 -  2) =     -3.30744  eV     1   --> A''            
     e(  3 -  3) =      1.19161  eV     1   --> A'             
     e(  4 -  4) =      1.57739  eV     1   --> A''            
     e(  5 -  5) =      9.12255  eV     1   --> A'             
     e(  6 -  6) =      9.17671  eV     1   --> A''            
     e(  7 -  7) =      9.47976  eV     1   --> A''            
     e(  8 -  8) =     10.52879  eV     1   --> A'             
     e(  9 -  9) =     15.04851  eV     1   --> A'             
     e( 10 - 10) =     16.11239  eV     1   --> A''            

 **************************************************************************

 **************************************************************************

                    xk=(  -0.90000,   0.45000,   0.00000  )

     Band symmetry, C_s (m)     point group:

     e(  1 -  1) =     -4.08721  eV     1   --> A'             
     e(  2 -  2) =     -3.13895  eV     1   --> A''            
     e(  3 -  3) =      1.15356  eV     1   --> A'             
     e(  4 -  4) =      1.70422  eV     1   --> A''            
     e(  5 -  5) =      8.92470  eV     1   --> A'             
     e(  6 -  6) =      9.04239  eV     1   --> A''            
     e(  7 -  7) =      9.41762  eV     1   --> A''            
     e(  8 -  8) =     11.02200  eV     1   --> A'             
     e(  9 -  9) =     14.70369  eV     1   --> A'             
     e( 10 - 10) =     16.09715  eV     1   --> A''            

 **************************************************************************

 **************************************************************************

                    xk=(  -0.86667,   0.43333,   0.00000  )

     Band symmetry, C_s (m)     point group:

     e(  1 -  1) =     -4.26056  eV     1   --> A'             
     e(  2 -  2) =     -2.96027  eV     1   --> A''            
     e(  3 -  3) =      1.14164  eV     1   --> A'             
     e(  4 -  4) =      1.83842  eV     1   --> A''            
     e(  5 -  5) =      8.73625  eV     1   --> A'             
     e(  6 -  6) =      8.91619  eV     1   --> A''            
     e(  7 -  7) =      9.36849  eV     1   --> A''            
     e(  8 -  8) =     11.51360  eV     1   --> A'             
     e(  9 -  9) =     14.36689  eV     1   --> A'             
     e( 10 - 10) =     15.93272  eV     1   --> A''            

 **************************************************************************

 **************************************************************************

                    xk=(  -0.83333,   0.41667,   0.00000  )

     Band symmetry, C_s (m)     point group:

     e(  1 -  1) =     -4.43890  eV     1   --> A'             
     e(  2 -  2) =     -2.77132  eV     1   --> A''            
     e(  3 -  3) =      1.15467  eV     1   --> A'             
     e(  4 -  4) =      1.97920  eV     1   --> A''            
     e(  5 -  5) =      8.55829  eV     1   --> A'             
     e(  6 -  6) =      8.79917  eV     1   --> A''            
     e(  7 -  7) =      9.33133  eV     1   --> A''            
     e(  8 -  8) =     11.98519  eV     1   --> A'             
     e(  9 -  9) =     14.05666  eV     1   --> A'             
     e( 10 - 10) =     15.68641  eV     1   --> A''            

 **************************************************************************

 **************************************************************************

                    xk=(  -0.80000,   0.40000,   0.00000  )

     Band symmetry, C_s (m)     point group:

     e(  1 -  1) =     -4.62038  eV     1   --> A'             
     e(  2 -  2) =     -2.57201  eV     1   --> A''            
     e(  3 -  3) =      1.19128  eV     1   --> A'             
     e(  4 -  4) =      2.12570  eV     1   --> A''            
     e(  5 -  5) =      8.39138  eV     1   --> A'             
     e(  6 -  6) =      8.69168  eV     1   --> A''            
     e(  7 -  7) =      9.30576  eV     1   --> A''            
     e(  8 -  8) =     12.38863  eV     1   --> A'             
     e(  9 -  9) =     13.81894  eV     1   --> A'             
     e( 10 - 10) =     15.40579  eV     1   --> A''            

 **************************************************************************

 **************************************************************************

                    xk=(  -0.76667,   0.38333,   0.00000  )

     Band symmetry, C_s (m)     point group:

     e(  1 -  1) =     -4.80327  eV     1   --> A'             
     e(  2 -  2) =     -2.36233  eV     1   --> A''            
     e(  3 -  3) =      1.25000  eV     1   --> A'             
     e(  4 -  4) =      2.27698  eV     1   --> A''            
     e(  5 -  5) =      8.23589  eV     1   --> A'             
     e(  6 -  6) =      8.59335  eV     1   --> A''            
     e(  7 -  7) =      9.29179  eV     1   --> A''            
     e(  8 -  8) =     12.59603  eV     1   --> A'             
     e(  9 -  9) =     13.77663  eV     1   --> A'             
     e( 10 - 10) =     15.11391  eV     1   --> A''            

 **************************************************************************

 **************************************************************************

                    xk=(  -0.73333,   0.36667,   0.00000  )

     Band symmetry, C_s (m)     point group:

     e(  1 -  1) =     -4.98592  eV     1   --> A'             
     e(  2 -  2) =     -2.14217  eV     1   --> A''            
     e(  3 -  3) =      1.32931  eV     1   --> A'             
     e(  4 -  4) =      2.43203  eV     1   --> A''            
     e(  5 -  5) =      8.09203  eV     1   --> A'             
     e(  6 -  6) =      8.50344  eV     1   --> A''            
     e(  7 -  7) =      9.28966  eV     1   --> A''            
     e(  8 -  8) =     12.51268  eV     1   --> A'             
     e(  9 -  9) =     14.01545  eV     1   --> A'             
     e( 10 - 10) =     14.82194  eV     1   --> A''            

 **************************************************************************

 **************************************************************************

                    xk=(  -0.70000,   0.35000,  -0.00000  )

     Band symmetry, C_s (m)     point group:

     e(  1 -  1) =     -5.16682  eV     1   --> A'             
     e(  2 -  2) =     -1.91152  eV     1   --> A''            
     e(  3 -  3) =      1.42779  eV     1   --> A'             
     e(  4 -  4) =      2.58981  eV     1   --> A''            
     e(  5 -  5) =      7.96007  eV     1   --> A'             
     e(  6 -  6) =      8.42078  eV     1   --> A''            
     e(  7 -  7) =      9.29979  eV     1   --> A''            
     e(  8 -  8) =     12.27280  eV     1   --> A'             
     e(  9 -  9) =     14.38612  eV     1   --> A'             
     e( 10 - 10) =     14.53578  eV     1   --> A''            

 **************************************************************************

 **************************************************************************

                    xk=(  -0.66667,   0.33333,   0.00000  )

     Band symmetry, C_s (m)     point group:

     e(  1 -  1) =     -5.34467  eV     1   --> A'             
     e(  2 -  2) =     -1.67037  eV     1   --> A''            
     e(  3 -  3) =      1.54402  eV     1   --> A'             
     e(  4 -  4) =      2.74923  eV     1   --> A''            
     e(  5 -  5) =      7.84009  eV     1   --> A'             
     e(  6 -  6) =      8.34377  eV     1   --> A''            
     e(  7 -  7) =      9.32267  eV     1   --> A''            
     e(  8 -  8) =     11.98339  eV     1   --> A'             
     e(  9 -  9) =     14.25874  eV     1   --> A''            
     e( 10 - 10) =     14.75758  eV     1   --> A'             

 **************************************************************************

 **************************************************************************

                    xk=(  -0.63333,   0.31667,  -0.00000  )

     Band symmetry, C_s (m)     point group:

     e(  1 -  1) =     -5.51828  eV     1   --> A'             
     e(  2 -  2) =     -1.41867  eV     1   --> A''            
     e(  3 -  3) =      1.67670  eV     1   --> A'             
     e(  4 -  4) =      2.90919  eV     1   --> A''            
     e(  5 -  5) =      7.73227  eV     1   --> A'             
     e(  6 -  6) =      8.27056  eV     1   --> A''            
     e(  7 -  7) =      9.35871  eV     1   --> A''            
     e(  8 -  8) =     11.67973  eV     1   --> A'             
     e(  9 -  9) =     13.99265  eV     1   --> A''            
     e( 10 - 10) =     15.06132  eV     1   --> A'             

 **************************************************************************

 **************************************************************************

                    xk=(  -0.60000,   0.30000,   0.00000  )

     Band symmetry, C_s (m)     point group:

     e(  1 -  1) =     -5.68666  eV     1   --> A'             
     e(  2 -  2) =     -1.15641  eV     1   --> A''            
     e(  3 -  3) =      1.82458  eV     1   --> A'             
     e(  4 -  4) =      3.06863  eV     1   --> A''            
     e(  5 -  5) =      7.63671  eV     1   --> A'             
     e(  6 -  6) =      8.19891  eV     1   --> A''            
     e(  7 -  7) =      9.40809  eV     1   --> A''            
     e(  8 -  8) =     11.37397  eV     1   --> A'             
     e(  9 -  9) =     13.73810  eV     1   --> A''            
     e( 10 - 10) =     15.25247  eV     1   --> A'             

 **************************************************************************

 **************************************************************************

                    xk=(  -0.56667,   0.28333,   0.00000  )

     Band symmetry, C_s (m)     point group:

     e(  1 -  1) =     -5.84896  eV     1   --> A'             
     e(  2 -  2) =     -0.88357  eV     1   --> A''            
     e(  3 -  3) =      1.98643  eV     1   --> A'             
     e(  4 -  4) =      3.22657  eV     1   --> A''            
     e(  5 -  5) =      7.55346  eV     1   --> A'             
     e(  6 -  6) =      8.12650  eV     1   --> A''            
     e(  7 -  7) =      9.47036  eV     1   --> A''            
     e(  8 -  8) =     11.07118  eV     1   --> A'             
     e(  9 -  9) =     13.49465  eV     1   --> A''            
     e( 10 - 10) =     15.31437  eV     1   --> A'             

 **************************************************************************

 **************************************************************************

                    xk=(  -0.53333,   0.26667,   0.00000  )

     Band symmetry, C_s (m)     point group:

     e(  1 -  1) =     -6.00448  eV     1   --> A'             
     e(  2 -  2) =     -0.60025  eV     1   --> A''            
     e(  3 -  3) =      2.16106  eV     1   --> A'             
     e(  4 -  4) =      3.38207  eV     1   --> A''            
     e(  5 -  5) =      7.48259  eV     1   --> A'             
     e(  6 -  6) =      8.05098  eV     1   --> A''            
     e(  7 -  7) =      9.54398  eV     1   --> A''            
     e(  8 -  8) =     10.77388  eV     1   --> A'             
     e(  9 -  9) =     13.26089  eV     1   --> A''            
     e( 10 - 10) =     15.26243  eV     1   --> A'             

 **************************************************************************

 **************************************************************************

                    xk=(  -0.50000,   0.25000,   0.00000  )

     Band symmetry, C_s (m)     point group:

     e(  1 -  1) =     -6.15258  eV     1   --> A'             
     e(  2 -  2) =     -0.30646  eV     1   --> A''            
     e(  3 -  3) =      2.34726  eV     1   --> A'             
     e(  4 -  4) =      3.53438  eV     1   --> A''            
     e(  5 -  5) =      7.42412  eV     1   --> A'             
     e(  6 -  6) =      7.97021  eV     1   --> A''            
     e(  7 -  7) =      9.62551  eV     1   --> A''            
     e(  8 -  8) =     10.48350  eV     1   --> A'             
     e(  9 -  9) =     13.03503  eV     1   --> A''            
     e( 10 - 10) =     15.12635  eV     1   --> A'             

 **************************************************************************

 **************************************************************************

                    xk=(  -0.46667,   0.23333,   0.00000  )

     Band symmetry, C_s (m)     point group:

     e(  1 -  1) =     -6.29271  eV     1   --> A'             
     e(  2 -  2) =     -0.00224  eV     1   --> A''            
     e(  3 -  3) =      2.54378  eV     1   --> A'             
     e(  4 -  4) =      3.68285  eV     1   --> A''            
     e(  5 -  5) =      7.37804  eV     1   --> A'             
     e(  6 -  6) =      7.88245  eV     1   --> A''            
     e(  7 -  7) =      9.70849  eV     1   --> A''            
     e(  8 -  8) =     10.20094  eV     1   --> A'             
     e(  9 -  9) =     12.81644  eV     1   --> A''            
     e( 10 - 10) =     14.93238  eV     1   --> A'             

 **************************************************************************

 **************************************************************************

                    xk=(  -0.43333,   0.21667,   0.00000  )

     Band symmetry, C_s (m)     point group:

     e(  1 -  1) =     -6.42450  eV     1   --> A'             
     e(  2 -  2) =      0.31217  eV     1   --> A''            
     e(  3 -  3) =      2.74927  eV     1   --> A'             
     e(  4 -  4) =      3.82701  eV     1   --> A''            
     e(  5 -  5) =      7.34426  eV     1   --> A'             
     e(  6 -  6) =      7.78618  eV     1   --> A''            
     e(  7 -  7) =      9.78163  eV     1   --> A''            
     e(  8 -  8) =      9.92682  eV     1   --> A'             
     e(  9 -  9) =     12.60887  eV     1   --> A''            
     e( 10 - 10) =     14.69850  eV     1   --> A'             

 **************************************************************************

 **************************************************************************

                    xk=(  -0.40000,   0.20000,   0.00000  )

     Band symmetry, C_s (m)     point group:

     e(  1 -  1) =     -6.54755  eV     1   --> A'             
     e(  2 -  2) =      0.63669  eV     1   --> A''            
     e(  3 -  3) =      2.96227  eV     1   --> A'             
     e(  4 -  4) =      3.96650  eV     1   --> A''            
     e(  5 -  5) =      7.32267  eV     1   --> A'             
     e(  6 -  6) =      7.68057  eV     1   --> A''            
     e(  7 -  7) =      9.66165  eV     1   --> A'             
     e(  8 -  8) =      9.82689  eV     1   --> A''            
     e(  9 -  9) =     12.42517  eV     1   --> A''            
     e( 10 - 10) =     14.43644  eV     1   --> A'             

 **************************************************************************

 **************************************************************************

                    xk=(  -0.36667,   0.18333,   0.00000  )

     Band symmetry, C_s (m)     point group:

     e(  1 -  1) =     -6.66157  eV     1   --> A'             
     e(  2 -  2) =      0.97107  eV     1   --> A''            
     e(  3 -  3) =      3.18113  eV     1   --> A'             
     e(  4 -  4) =      4.10107  eV     1   --> A''            
     e(  5 -  5) =      7.31300  eV     1   --> A'             
     e(  6 -  6) =      7.56490  eV     1   --> A''            
     e(  7 -  7) =      9.40587  eV     1   --> A'             
     e(  8 -  8) =      9.81953  eV     1   --> A''            
     e(  9 -  9) =     12.28933  eV     1   --> A''            
     e( 10 - 10) =     14.15443  eV     1   --> A'             

 **************************************************************************

 **************************************************************************

                    xk=(  -0.33333,   0.16667,   0.00000  )

     Band symmetry, C_s (m)     point group:

     e(  1 -  1) =     -6.76633  eV     1   --> A'             
     e(  2 -  2) =      1.31504  eV     1   --> A''            
     e(  3 -  3) =      3.40398  eV     1   --> A'             
     e(  4 -  4) =      4.23052  eV     1   --> A''            
     e(  5 -  5) =      7.31489  eV     1   --> A'             
     e(  6 -  6) =      7.43879  eV     1   --> A''            
     e(  7 -  7) =      9.15997  eV     1   --> A'             
     e(  8 -  8) =      9.73524  eV     1   --> A''            
     e(  9 -  9) =     12.22978  eV     1   --> A''            
     e( 10 - 10) =     13.85924  eV     1   --> A'             

 **************************************************************************

 **************************************************************************

                    xk=(  -0.30000,   0.15000,  -0.00000  )

     Band symmetry, C_s (m)     point group:

     e(  1 -  1) =     -6.86159  eV     1   --> A'             
     e(  2 -  2) =      1.66826  eV     1   --> A''            
     e(  3 -  3) =      3.62859  eV     1   --> A'             
     e(  4 -  4) =      4.35459  eV     1   --> A''            
     e(  5 -  5) =      7.30180  eV     1   --> A''            
     e(  6 -  6) =      7.32772  eV     1   --> A'             
     e(  7 -  7) =      8.92451  eV     1   --> A'             
     e(  8 -  8) =      9.56472  eV     1   --> A''            
     e(  9 -  9) =     12.26301  eV     1   --> A''            
     e( 10 - 10) =     13.55735  eV     1   --> A'             

 **************************************************************************

 **************************************************************************

                    xk=(  -0.26667,   0.13333,  -0.00000  )

     Band symmetry, C_s (m)     point group:

     e(  1 -  1) =     -6.94719  eV     1   --> A'             
     e(  2 -  2) =      2.03020  eV     1   --> A''            
     e(  3 -  3) =      3.85235  eV     1   --> A'             
     e(  4 -  4) =      4.47291  eV     1   --> A''            
     e(  5 -  5) =      7.15287  eV     1   --> A''            
     e(  6 -  6) =      7.35061  eV     1   --> A'             
     e(  7 -  7) =      8.70026  eV     1   --> A'             
     e(  8 -  8) =      9.32097  eV     1   --> A''            
     e(  9 -  9) =     12.38435  eV     1   --> A''            
     e( 10 - 10) =     13.25541  eV     1   --> A'             

 **************************************************************************

 **************************************************************************

                    xk=(  -0.23333,   0.11667,   0.00000  )

     Band symmetry, C_s (m)     point group:

     e(  1 -  1) =     -7.02300  eV     1   --> A'             
     e(  2 -  2) =      2.40025  eV     1   --> A''            
     e(  3 -  3) =      4.07208  eV     1   --> A'             
     e(  4 -  4) =      4.58486  eV     1   --> A''            
     e(  5 -  5) =      6.99003  eV     1   --> A''            
     e(  6 -  6) =      7.38225  eV     1   --> A'             
     e(  7 -  7) =      8.48831  eV     1   --> A'             
     e(  8 -  8) =      9.03027  eV     1   --> A''            
     e(  9 -  9) =     12.57603  eV     1   --> A''            
     e( 10 - 10) =     12.96048  eV     1   --> A'             

 **************************************************************************

 **************************************************************************

                    xk=(  -0.20000,   0.10000,   0.00000  )

     Band symmetry, C_s (m)     point group:

     e(  1 -  1) =     -7.08889  eV     1   --> A'             
     e(  2 -  2) =      2.77757  eV     1   --> A''            
     e(  3 -  3) =      4.28391  eV     1   --> A'             
     e(  4 -  4) =      4.68944  eV     1   --> A''            
     e(  5 -  5) =      6.80971  eV     1   --> A''            
     e(  6 -  6) =      7.42081  eV     1   --> A'             
     e(  7 -  7) =      8.29028  eV     1   --> A'             
     e(  8 -  8) =      8.72063  eV     1   --> A''            
     e(  9 -  9) =     12.68000  eV     1   --> A'             
     e( 10 - 10) =     12.81874  eV     1   --> A''            

 **************************************************************************

 **************************************************************************

                    xk=(  -0.16667,   0.08333,  -0.00000  )

     Band symmetry, C_s (m)     point group:

     e(  1 -  1) =     -7.14479  eV     1   --> A'             
     e(  2 -  2) =      3.16108  eV     1   --> A''            
     e(  3 -  3) =      4.48302  eV     1   --> A'             
     e(  4 -  4) =      4.78516  eV     1   --> A''            
     e(  5 -  5) =      6.60640  eV     1   --> A''            
     e(  6 -  6) =      7.46376  eV     1   --> A'             
     e(  7 -  7) =      8.10860  eV     1   --> A'             
     e(  8 -  8) =      8.41740  eV     1   --> A''            
     e(  9 -  9) =     12.42183  eV     1   --> A'             
     e( 10 - 10) =     13.09600  eV     1   --> A''            

 **************************************************************************

 **************************************************************************

                    xk=(  -0.13333,   0.06667,   0.00000  )

     Band symmetry, C_s (m)     point group:

     e(  1 -  1) =     -7.19061  eV     1   --> A'             
     e(  2 -  2) =      3.54928  eV     1   --> A''            
     e(  3 -  3) =      4.66344  eV     1   --> A'             
     e(  4 -  4) =      4.86991  eV     1   --> A''            
     e(  5 -  5) =      6.37332  eV     1   --> A''            
     e(  6 -  6) =      7.50784  eV     1   --> A'             
     e(  7 -  7) =      7.94677  eV     1   --> A'             
     e(  8 -  8) =      8.14296  eV     1   --> A''            
     e(  9 -  9) =     12.19413  eV     1   --> A'             
     e( 10 - 10) =     13.39325  eV     1   --> A''            

 **************************************************************************

 **************************************************************************

                    xk=(  -0.10000,   0.05000,   0.00000  )

     Band symmetry, C_s (m)     point group:

     e(  1 -  1) =     -7.22631  eV     1   --> A'             
     e(  2 -  2) =      3.94007  eV     1   --> A''            
     e(  3 -  3) =      4.81786  eV     1   --> A'             
     e(  4 -  4) =      4.94096  eV     1   --> A''            
     e(  5 -  5) =      6.10489  eV     1   --> A''            
     e(  6 -  6) =      7.54904  eV     1   --> A'             
     e(  7 -  7) =      7.80977  eV     1   --> A'             
     e(  8 -  8) =      7.91583  eV     1   --> A''            
     e(  9 -  9) =     12.00522  eV     1   --> A'             
     e( 10 - 10) =     13.69455  eV     1   --> A''            

 **************************************************************************

 **************************************************************************

                    xk=(  -0.06667,   0.03333,  -0.00000  )

     Band symmetry, C_s (m)     point group:

     e(  1 -  1) =     -7.25183  eV     1   --> A'             
     e(  2 -  2) =      4.33048  eV     1   --> A''            
     e(  3 -  3) =      4.93780  eV     1   --> A'             
     e(  4 -  4) =      4.99514  eV     1   --> A''            
     e(  5 -  5) =      5.80015  eV     1   --> A''            
     e(  6 -  6) =      7.58295  eV     1   --> A'             
     e(  7 -  7) =      7.70398  eV     1   --> A'             
     e(  8 -  8) =      7.74854  eV     1   --> A''            
     e(  9 -  9) =     11.86308  eV     1   --> A'             
     e( 10 - 10) =     13.97643  eV     1   --> A''            

 **************************************************************************

 **************************************************************************

                    xk=(  -0.03333,   0.01667,  -0.00000  )

     Band symmetry, C_s (m)     point group:

     e(  1 -  1) =     -7.26718  eV     1   --> A'             
     e(  2 -  2) =      4.71558  eV     1   --> A''            
     e(  3 -  3) =      5.01450  eV     1   --> A'             
     e(  4 -  4) =      5.02929  eV     1   --> A''            
     e(  5 -  5) =      5.46459  eV     1   --> A''            
     e(  6 -  6) =      7.60536  eV     1   --> A'             
     e(  7 -  7) =      7.63649  eV     1   --> A'             
     e(  8 -  8) =      7.64709  eV     1   --> A''            
     e(  9 -  9) =     11.77455  eV     1   --> A'             
     e( 10 - 10) =     14.19629  eV     1   --> A''            

 **************************************************************************

 **************************************************************************

                    xk=(   0.00000,   0.00000,   0.00000  )

     point group O_h (m-3m) 
     there are 10 classes
     the character table:

       E     8C3   3C2   6C4   6C2'  i     8S6   3s_h  6S4   6s_d 
A_1g   1.00  1.00  1.00  1.00  1.00  1.00  1.00  1.00  1.00  1.00
A_2g   1.00  1.00  1.00 -1.00 -1.00  1.00  1.00  1.00 -1.00 -1.00
E_g    2.00 -1.00  2.00  0.00  0.00  2.00 -1.00  2.00  0.00  0.00
T_1g   3.00  0.00 -1.00  1.00 -1.00  3.00  0.00 -1.00  1.00 -1.00
T_2g   3.00  0.00 -1.00 -1.00  1.00  3.00  0.00 -1.00 -1.00  1.00
A_1u   1.00  1.00  1.00  1.00  1.00 -1.00 -1.00 -1.00 -1.00 -1.00
A_2u   1.00  1.00  1.00 -1.00 -1.00 -1.00 -1.00 -1.00  1.00  1.00
E_u    2.00 -1.00  2.00  0.00  0.00 -2.00  1.00 -2.00  0.00  0.00
T_1u   3.00  0.00 -1.00  1.00 -1.00 -3.00  0.00  1.00 -1.00  1.00
T_2u   3.00  0.00 -1.00 -1.00  1.00 -3.00  0.00  1.00  1.00 -1.00

     the symmetry operations in each class and the name of the first element:

     E        1
                                                                 
     8C3     17   19   20   18   24   21   22   23
                                                                 
     3C2      2    4    3
                                                                 
     6C4      7    8   15   16   12   11
                                                                 
     6C2'     5    6   14   13   10    9
                                                                 
     i       25
                                                                 
     8S6     41   43   44   42   48   45   46   47
                                                                 
     3s_h    26   28   27
                                                                 
     6S4     31   32   39   40   36   35
                                                                 
     6s_d    29   30   38   37   34   33
                                                                 

     Band symmetry, O_h (m-3m)  point group:

     e(  1 -  1) =     -7.27229  eV     1   --> A_1g G_1   G_1+
     e(  2 -  4) =      5.04097  eV     3   --> T_2g G_25' G_5+
     e(  5 -  5) =      5.15528  eV     1   --> A_2u G_2'  G_2-
     e(  6 -  8) =      7.61321  eV     3   --> T_1u G_15  G_4-
     e(  9 -  9) =     11.74448  eV     1   --> A_1g G_1   G_1+
     e( 10 - 10) =     14.28458  eV     1   -->   ?

 **************************************************************************

 **************************************************************************

                    xk=(  -0.03333,   0.00000,   0.00000  )

     point group C_4v (4mm) 
     there are  5 classes
     the character table:

       E     2C4   C2    2s_v  2s_d 
A_1    1.00  1.00  1.00  1.00  1.00
A_2    1.00  1.00  1.00 -1.00 -1.00
B_1    1.00 -1.00  1.00  1.00 -1.00
B_2    1.00 -1.00  1.00 -1.00  1.00
E      2.00  0.00 -2.00  0.00  0.00

     the symmetry operations in each class and the name of the first element:

     E        1
                                                                 
     2C4      3    4
                                                                 
     C2       2
                                                                 
     2s_v     5    6
                                                                 
     2s_d     7    8
                                                                 

     Band symmetry, C_4v (4mm)  point group:

     e(  1 -  1) =     -7.26820  eV     1   --> A_1  G_1 D_1   
     e(  2 -  2) =      4.76182  eV     1   --> B_2  G_4 D_2'  
     e(  3 -  4) =      5.01983  eV     2   --> E    G_5 D_5   
     e(  5 -  5) =      5.43361  eV     1   --> B_2  G_4 D_2'  
     e(  6 -  6) =      7.59863  eV     1   --> A_1  G_1 D_1   
     e(  7 -  8) =      7.64008  eV     2   --> E    G_5 D_5   
     e(  9 -  9) =     11.76856  eV     1   --> A_1  G_1 D_1   
     e( 10 - 10) =     14.20089  eV     1   --> B_2  G_4 D_2'  

 **************************************************************************

 **************************************************************************

                    xk=(  -0.06667,   0.00000,   0.00000  )

     Band symmetry, C_4v (4mm)  point group:

     e(  1 -  1) =     -7.25594  eV     1   --> A_1  G_1 D_1   
     e(  2 -  2) =      4.43295  eV     1   --> B_2  G_4 D_2'  
     e(  3 -  4) =      4.95901  eV     2   --> E    G_5 D_5   
     e(  5 -  5) =      5.75971  eV     1   --> B_2  G_4 D_2'  
     e(  6 -  6) =      7.55599  eV     1   --> A_1  G_1 D_1   
     e(  7 -  8) =      7.71808  eV     2   --> E    G_5 D_5   
     e(  9 -  9) =     11.83965  eV     1   --> A_1  G_1 D_1   
     e( 10 - 10) =     13.98650  eV     1   --> B_2  G_4 D_2'  

 **************************************************************************

 **************************************************************************

                    xk=(  -0.10000,   0.00000,   0.00000  )

     Band symmetry, C_4v (4mm)  point group:

     e(  1 -  1) =     -7.23546  eV     1   --> A_1  G_1 D_1   
     e(  2 -  2) =      4.10326  eV     1   --> B_2  G_4 D_2'  
     e(  3 -  4) =      4.86515  eV     2   --> E    G_5 D_5   
     e(  5 -  5) =      6.08372  eV     1   --> B_2  G_4 D_2'  
     e(  6 -  6) =      7.48830  eV     1   --> A_1  G_1 D_1   
     e(  7 -  8) =      7.84053  eV     2   --> E    G_5 D_5   
     e(  9 -  9) =     11.95472  eV     1   --> A_1  G_1 D_1   
     e( 10 - 10) =     13.70236  eV     1   --> B_2  G_4 D_2'  

 **************************************************************************

 **************************************************************************

                    xk=(  -0.13333,   0.00000,   0.00000  )

     Band symmetry, C_4v (4mm)  point group:

     e(  1 -  1) =     -7.20685  eV     1   --> A_1  G_1 D_1   
     e(  2 -  2) =      3.77442  eV     1   --> B_2  G_4 D_2'  
     e(  3 -  4) =      4.74637  eV     2   --> E    G_5 D_5   
     e(  5 -  5) =      6.40216  eV     1   --> B_2  G_4 D_2'  
     e(  6 -  6) =      7.39978  eV     1   --> A_1  G_1 D_1   
     e(  7 -  8) =      7.99922  eV     2   --> E    G_5 D_5   
     e(  9 -  9) =     12.10924  eV     1   --> A_1  G_1 D_1   
     e( 10 - 10) =     13.38960  eV     1   --> B_2  G_4 D_2'  

 **************************************************************************

 **************************************************************************

                    xk=(  -0.16667,   0.00000,   0.00000  )

     Band symmetry, C_4v (4mm)  point group:

     e(  1 -  1) =     -7.17009  eV     1   --> A_1  G_1 D_1   
     e(  2 -  2) =      3.44722  eV     1   --> B_2  G_4 D_2'  
     e(  3 -  4) =      4.61031  eV     2   --> E    G_5 D_5   
     e(  5 -  5) =      6.71179  eV     1   --> B_2  G_4 D_2'  
     e(  6 -  6) =      7.29518  eV     1   --> A_1  G_1 D_1   
     e(  7 -  8) =      8.18641  eV     2   --> E    G_5 D_5   
     e(  9 -  9) =     12.29835  eV     1   --> A_1  G_1 D_1   
     e( 10 - 10) =     13.07188  eV     1   --> B_2  G_4 D_2'  

 **************************************************************************

 **************************************************************************

                    xk=(  -0.20000,   0.00000,   0.00000  )

     Band symmetry, C_4v (4mm)  point group:

     e(  1 -  1) =     -7.12516  eV     1   --> A_1  G_1 D_1   
     e(  2 -  2) =      3.12199  eV     1   --> B_2  G_4 D_2'  
     e(  3 -  4) =      4.46323  eV     2   --> E    G_5 D_5   
     e(  5 -  5) =      7.00831  eV     1   --> B_2  G_4 D_2'  
     e(  6 -  6) =      7.17905  eV     1   --> A_1  G_1 D_1   
     e(  7 -  8) =      8.39572  eV     2   --> E    G_5 D_5   
     e(  9 -  9) =     12.51719  eV     1   --> A_1  G_1 D_1   
     e( 10 - 10) =     12.76451  eV     1   --> B_2  G_4 D_2'  

 **************************************************************************

 **************************************************************************

                    xk=(  -0.23333,   0.00000,   0.00000  )

     Band symmetry, C_4v (4mm)  point group:

     e(  1 -  1) =     -7.07210  eV     1   --> A_1  G_1 D_1   
     e(  2 -  2) =      2.79899  eV     1   --> B_2  G_4 D_2'  
     e(  3 -  4) =      4.30990  eV     2   --> E    G_5 D_5   
     e(  5 -  5) =      7.05545  eV     1   --> A_1  G_1 D_1   
     e(  6 -  6) =      7.28599  eV     1   --> B_2  G_4 D_2'  
     e(  7 -  8) =      8.62221  eV     2   --> E    G_5 D_5   
     e(  9 -  9) =     12.47959  eV     1   --> B_2  G_4 D_2'  
     e( 10 - 10) =     12.76128  eV     1   --> A_1  G_1 D_1   

 **************************************************************************

 **************************************************************************

                    xk=(  -0.26667,   0.00000,   0.00000  )

     Band symmetry, C_4v (4mm)  point group:

     e(  1 -  1) =     -7.01092  eV     1   --> A_1  G_1 D_1   
     e(  2 -  2) =      2.47841  eV     1   --> B_2  G_4 D_2'  
     e(  3 -  4) =      4.15387  eV     2   --> E    G_5 D_5   
     e(  5 -  5) =      6.92787  eV     1   --> A_1  G_1 D_1   
     e(  6 -  6) =      7.53718  eV     1   --> B_2  G_4 D_2'  
     e(  7 -  8) =      8.86218  eV     2   --> E    G_5 D_5   
     e(  9 -  9) =     12.22867  eV     1   --> B_2  G_4 D_2'  
     e( 10 - 10) =     13.02666  eV     1   --> A_1  G_1 D_1   

 **************************************************************************

 **************************************************************************

                    xk=(  -0.30000,   0.00000,   0.00000  )

     Band symmetry, C_4v (4mm)  point group:

     e(  1 -  1) =     -6.94162  eV     1   --> A_1  G_1 D_1   
     e(  2 -  2) =      2.16042  eV     1   --> B_2  G_4 D_2'  
     e(  3 -  4) =      3.99775  eV     2   --> E    G_5 D_5   
     e(  5 -  5) =      6.79915  eV     1   --> A_1  G_1 D_1   
     e(  6 -  6) =      7.75209  eV     1   --> B_2  G_4 D_2'  
     e(  7 -  8) =      9.11282  eV     2   --> E    G_5 D_5   
     e(  9 -  9) =     12.02397  eV     1   --> B_2  G_4 D_2'  
     e( 10 - 10) =     13.30983  eV     1   --> A_1  G_1 D_1   

 **************************************************************************

 **************************************************************************

                    xk=(  -0.33333,   0.00000,   0.00000  )

     Band symmetry, C_4v (4mm)  point group:

     e(  1 -  1) =     -6.86423  eV     1   --> A_1  G_1 D_1   
     e(  2 -  2) =      1.84518  eV     1   --> B_2  G_4 D_2'  
     e(  3 -  4) =      3.84350  eV     2   --> E    G_5 D_5   
     e(  5 -  5) =      6.67161  eV     1   --> A_1  G_1 D_1   
     e(  6 -  6) =      7.91968  eV     1   --> B_2  G_4 D_2'  
     e(  7 -  8) =      9.37200  eV     2   --> E    G_5 D_5   
     e(  9 -  9) =     11.87835  eV     1   --> B_2  G_4 D_2'  
     e( 10 - 10) =     13.60771  eV     1   --> A_1  G_1 D_1   

 **************************************************************************

 **************************************************************************

                    xk=(  -0.36667,   0.00000,   0.00000  )

     Band symmetry, C_4v (4mm)  point group:

     e(  1 -  1) =     -6.77879  eV     1   --> A_1  G_1 D_1   
     e(  2 -  2) =      1.53270  eV     1   --> B_2  G_4 D_2'  
     e(  3 -  4) =      3.69255  eV     2   --> E    G_5 D_5   
     e(  5 -  5) =      6.54713  eV     1   --> A_1  G_1 D_1   
     e(  6 -  6) =      8.02884  eV     1   --> B_2  G_4 D_2'  
     e(  7 -  8) =      9.63806  eV     2   --> E    G_5 D_5   
     e(  9 -  9) =     11.80338  eV     1   --> B_2  G_4 D_2'  
     e( 10 - 10) =     13.91739  eV     1   --> A_1  G_1 D_1   

 **************************************************************************

 **************************************************************************

                    xk=(  -0.40000,   0.00000,   0.00000  )

     Band symmetry, C_4v (4mm)  point group:

     e(  1 -  1) =     -6.68534  eV     1   --> A_1  G_1 D_1   
     e(  2 -  2) =      1.22308  eV     1   --> B_2  G_4 D_2'  
     e(  3 -  4) =      3.54603  eV     2   --> E    G_5 D_5   
     e(  5 -  5) =      6.42720  eV     1   --> A_1  G_1 D_1   
     e(  6 -  6) =      8.07348  eV     1   --> B_2  G_4 D_2'  
     e(  7 -  8) =      9.90968  eV     2   --> E    G_5 D_5   
     e(  9 -  9) =     11.80591  eV     1   --> B_2  G_4 D_2'  
     e( 10 - 10) =     14.23611  eV     1   --> A_1  G_1 D_1   

 **************************************************************************

 **************************************************************************

                    xk=(  -0.43333,   0.00000,   0.00000  )

     Band symmetry, C_4v (4mm)  point group:

     e(  1 -  1) =     -6.58384  eV     1   --> A_1  G_1 D_1   
     e(  2 -  2) =      0.91655  eV     1   --> B_2  G_4 D_2'  
     e(  3 -  4) =      3.40480  eV     2   --> E    G_5 D_5   
     e(  5 -  5) =      6.31307  eV     1   --> A_1  G_1 D_1   
     e(  6 -  6) =      8.05489  eV     1   --> B_2  G_4 D_2'  
     e(  7 -  8) =     10.18580  eV     2   --> E    G_5 D_5   
     e(  9 -  9) =     11.88501  eV     1   --> B_2  G_4 D_2'  
     e( 10 - 10) =     14.56114  eV     1   --> A_1  G_1 D_1   

 **************************************************************************

 **************************************************************************

                    xk=(  -0.46667,   0.00000,   0.00000  )

     Band symmetry, C_4v (4mm)  point group:

     e(  1 -  1) =     -6.47442  eV     1   --> A_1  G_1 D_1   
     e(  2 -  2) =      0.61310  eV     1   --> B_2  G_4 D_2'  
     e(  3 -  4) =      3.26953  eV     2   --> E    G_5 D_5   
     e(  5 -  5) =      6.20569  eV     1   --> A_1  G_1 D_1   
     e(  6 -  6) =      7.98164  eV     1   --> B_2  G_4 D_2'  
     e(  7 -  8) =     10.46551  eV     2   --> E    G_5 D_5   
     e(  9 -  9) =     12.03191  eV     1   --> B_2  G_4 D_2'  
     e( 10 - 10) =     14.88945  eV     1   --> A_1  G_1 D_1   

 **************************************************************************

 **************************************************************************

                    xk=(  -0.50000,   0.00000,   0.00000  )

     Band symmetry, C_4v (4mm)  point group:

     e(  1 -  1) =     -6.35707  eV     1   --> A_1  G_1 D_1   
     e(  2 -  2) =      0.31287  eV     1   --> B_2  G_4 D_2'  
     e(  3 -  4) =      3.14077  eV     2   --> E    G_5 D_5   
     e(  5 -  5) =      6.10593  eV     1   --> A_1  G_1 D_1   
     e(  6 -  6) =      7.86664  eV     1   --> B_2  G_4 D_2'  
     e(  7 -  8) =     10.74805  eV     2   --> E    G_5 D_5   
     e(  9 -  9) =     12.23354  eV     1   --> B_2  G_4 D_2'  
     e( 10 - 10) =     15.21775  eV     1   --> A_1  G_1 D_1   

 **************************************************************************

 **************************************************************************

                    xk=(  -0.53333,   0.00000,   0.00000  )

     Band symmetry, C_4v (4mm)  point group:

     e(  1 -  1) =     -6.23185  eV     1   --> A_1  G_1 D_1   
     e(  2 -  2) =      0.01597  eV     1   --> B_2  G_4 D_2'  
     e(  3 -  4) =      3.01896  eV     2   --> E    G_5 D_5   
     e(  5 -  5) =      6.01444  eV     1   --> A_1  G_1 D_1   
     e(  6 -  6) =      7.72296  eV     1   --> B_2  G_4 D_2'  
     e(  7 -  8) =     11.03272  eV     2   --> E    G_5 D_5   
     e(  9 -  9) =     12.47644  eV     1   --> B_2  G_4 D_2'  
     e( 10 - 10) =     15.54217  eV     1   --> A_1  G_1 D_1   

 **************************************************************************

 **************************************************************************

                    xk=(  -0.56667,   0.00000,   0.00000  )

     Band symmetry, C_4v (4mm)  point group:

     e(  1 -  1) =     -6.09876  eV     1   --> A_1  G_1 D_1   
     e(  2 -  2) =     -0.27745  eV     1   --> B_2  G_4 D_2'  
     e(  3 -  4) =      2.90445  eV     2   --> E    G_5 D_5   
     e(  5 -  5) =      5.93180  eV     1   --> A_1  G_1 D_1   
     e(  6 -  6) =      7.56171  eV     1   --> B_2  G_4 D_2'  
     e(  7 -  8) =     11.31884  eV     2   --> E    G_5 D_5   
     e(  9 -  9) =     12.74900  eV     1   --> B_2  G_4 D_2'  
     e( 10 - 10) =     15.73548  eV     1   --> A_2  G_2 D_1'  

 **************************************************************************

 **************************************************************************

                    xk=(  -0.60000,   0.00000,   0.00000  )

     Band symmetry, C_4v (4mm)  point group:

     e(  1 -  1) =     -5.95799  eV     1   --> A_1  G_1 D_1   
     e(  2 -  2) =     -0.56730  eV     1   --> B_2  G_4 D_2'  
     e(  3 -  4) =      2.79755  eV     2   --> E    G_5 D_5   
     e(  5 -  5) =      5.85847  eV     1   --> A_1  G_1 D_1   
     e(  6 -  6) =      7.39140  eV     1   --> B_2  G_4 D_2'  
     e(  7 -  8) =     11.60576  eV     2   --> E    G_5 D_5   
     e(  9 -  9) =     13.04209  eV     1   --> B_2  G_4 D_2'  
     e( 10 - 10) =     15.91112  eV     1   --> A_2  G_2 D_1'  

 **************************************************************************

 **************************************************************************

                    xk=(  -0.63333,   0.00000,   0.00000  )

     Band symmetry, C_4v (4mm)  point group:

     e(  1 -  1) =     -5.80952  eV     1   --> A_1  G_1 D_1   
     e(  2 -  2) =     -0.85338  eV     1   --> B_2  G_4 D_2'  
     e(  3 -  4) =      2.69848  eV     2   --> E    G_5 D_5   
     e(  5 -  5) =      5.79489  eV     1   --> A_1  G_1 D_1   
     e(  6 -  6) =      7.21820  eV     1   --> B_2  G_4 D_2'  
     e(  7 -  8) =     11.89270  eV     2   --> E    G_5 D_5   
     e(  9 -  9) =     13.34861  eV     1   --> B_2  G_4 D_2'  
     e( 10 - 10) =     16.09675  eV     1   --> A_2  G_2 D_1'  

 **************************************************************************

 **************************************************************************

                    xk=(  -0.66667,   0.00000,   0.00000  )

     Band symmetry, C_4v (4mm)  point group:

     e(  1 -  1) =     -5.65346  eV     1   --> A_1  G_1 D_1   
     e(  2 -  2) =     -1.13553  eV     1   --> B_2  G_4 D_2'  
     e(  3 -  4) =      2.60747  eV     2   --> E    G_5 D_5   
     e(  5 -  5) =      5.74142  eV     1   --> A_1  G_1 D_1   
     e(  6 -  6) =      7.04661  eV     1   --> B_2  G_4 D_2'  
     e(  7 -  8) =     12.17878  eV     2   --> E    G_5 D_5   
     e(  9 -  9) =     13.66333  eV     1   --> B_2  G_4 D_2'  
     e( 10 - 10) =     16.29238  eV     1   --> A_2  G_2 D_1'  

 **************************************************************************

 **************************************************************************

                    xk=(  -0.70000,   0.00000,   0.00000  )

     Band symmetry, C_4v (4mm)  point group:

     e(  1 -  1) =     -5.48987  eV     1   --> A_1  G_1 D_1   
     e(  2 -  2) =     -1.41358  eV     1   --> B_2  G_4 D_2'  
     e(  3 -  4) =      2.52468  eV     2   --> E    G_5 D_5   
     e(  5 -  5) =      5.69836  eV     1   --> A_1  G_1 D_1   
     e(  6 -  6) =      6.87980  eV     1   --> B_2  G_4 D_2'  
     e(  7 -  8) =     12.46285  eV     2   --> E    G_5 D_5   
     e(  9 -  9) =     13.98218  eV     1   --> B_2  G_4 D_2'  
     e( 10 - 10) =     16.49802  eV     1   --> A_2  G_2 D_1'  

 **************************************************************************

 **************************************************************************

                    xk=(  -0.73333,   0.00000,   0.00000  )

     Band symmetry, C_4v (4mm)  point group:

     e(  1 -  1) =     -5.31886  eV     1   --> A_1  G_1 D_1   
     e(  2 -  2) =     -1.68738  eV     1   --> B_2  G_4 D_2'  
     e(  3 -  4) =      2.45027  eV     2   --> E    G_5 D_5   
     e(  5 -  5) =      5.66600  eV     1   --> A_1  G_1 D_1   
     e(  6 -  6) =      6.72003  eV     1   --> B_2  G_4 D_2'  
     e(  7 -  8) =     12.74334  eV     2   --> E    G_5 D_5   
     e(  9 -  9) =     14.30188  eV     1   --> B_2  G_4 D_2'  
     e( 10 - 10) =     16.71366  eV     1   --> A_2  G_2 D_1'  

 **************************************************************************

 **************************************************************************

                    xk=(  -0.76667,   0.00000,   0.00000  )

     Band symmetry, C_4v (4mm)  point group:

     e(  1 -  1) =     -5.14055  eV     1   --> A_1  G_1 D_1   
     e(  2 -  2) =     -1.95671  eV     1   --> B_2  G_4 D_2'  
     e(  3 -  4) =      2.38435  eV     2   --> E    G_5 D_5   
     e(  5 -  5) =      5.64456  eV     1   --> A_1  G_1 D_1   
     e(  6 -  6) =      6.56891  eV     1   --> B_2  G_4 D_2'  
     e(  7 -  8) =     13.01809  eV     2   --> E    G_5 D_5   
     e(  9 -  9) =     14.61973  eV     1   --> B_2  G_4 D_2'  
     e( 10 - 10) =     16.93929  eV     1   --> A_2  G_2 D_1'  

 **************************************************************************

 **************************************************************************

                    xk=(  -0.80000,   0.00000,   0.00000  )

     Band symmetry, C_4v (4mm)  point group:

     e(  1 -  1) =     -4.95503  eV     1   --> A_1  G_1 D_1   
     e(  2 -  2) =     -2.22126  eV     1   --> B_2  G_4 D_2'  
     e(  3 -  4) =      2.32703  eV     2   --> E    G_5 D_5   
     e(  5 -  5) =      5.63427  eV     1   --> A_1  G_1 D_1   
     e(  6 -  6) =      6.42760  eV     1   --> B_2  G_4 D_2'  
     e(  7 -  8) =     13.28400  eV     2   --> E    G_5 D_5   
     e(  9 -  9) =     14.93343  eV     1   --> B_2  G_4 D_2'  
     e( 10 - 10) =     17.17491  eV     1   --> A_2  G_2 D_1'  

 **************************************************************************

 **************************************************************************

                    xk=(  -0.83333,   0.00000,   0.00000  )

     Band symmetry, C_4v (4mm)  point group:

     e(  1 -  1) =     -4.76242  eV     1   --> A_1  G_1 D_1   
     e(  2 -  2) =     -2.48089  eV     1   --> B_2  G_4 D_2'  
     e(  3 -  4) =      2.27839  eV     2   --> E    G_5 D_5   
     e(  5 -  5) =      5.63539  eV     1   --> A_1  G_1 D_1   
     e(  6 -  6) =      6.29688  eV     1   --> B_2  G_4 D_2'  
     e(  7 -  8) =     13.53652  eV     2   --> E    G_5 D_5   
     e(  9 -  9) =     15.24073  eV     1   --> B_2  G_4 D_2'  
     e( 10 - 10) =     17.27947  eV     1   --> A_1  G_1 D_1   

 **************************************************************************

 **************************************************************************

                    xk=(  -0.86667,   0.00000,   0.00000  )

     Band symmetry, C_4v (4mm)  point group:

     e(  1 -  1) =     -4.56282  eV     1   --> A_1  G_1 D_1   
     e(  2 -  2) =     -2.73538  eV     1   --> B_2  G_4 D_2'  
     e(  3 -  4) =      2.23851  eV     2   --> E    G_5 D_5   
     e(  5 -  5) =      5.64807  eV     1   --> A_1  G_1 D_1   
     e(  6 -  6) =      6.17737  eV     1   --> B_2  G_4 D_2'  
     e(  7 -  8) =     13.76910  eV     2   --> E    G_5 D_5   
     e(  9 -  9) =     15.53947  eV     1   --> B_2  G_4 D_2'  
     e( 10 - 10) =     17.23080  eV     1   --> A_1  G_1 D_1   

 **************************************************************************

 **************************************************************************

                    xk=(  -0.90000,   0.00000,   0.00000  )

     Band symmetry, C_4v (4mm)  point group:

     e(  1 -  1) =     -4.35645  eV     1   --> A_1  G_1 D_1   
     e(  2 -  2) =     -2.98455  eV     1   --> B_2  G_4 D_2'  
     e(  3 -  4) =      2.20744  eV     2   --> E    G_5 D_5   
     e(  5 -  5) =      5.67244  eV     1   --> A_1  G_1 D_1   
     e(  6 -  6) =      6.06939  eV     1   --> B_2  G_4 D_2'  
     e(  7 -  8) =     13.97241  eV     2   --> E    G_5 D_5   
     e(  9 -  9) =     15.82725  eV     1   --> B_2  G_4 D_2'  
     e( 10 - 10) =     17.13146  eV     1   --> A_1  G_1 D_1   

 **************************************************************************

 **************************************************************************

                    xk=(  -0.93333,   0.00000,   0.00000  )

     Band symmetry, C_4v (4mm)  point group:

     e(  1 -  1) =     -4.14338  eV     1   --> A_1  G_1 D_1   
     e(  2 -  2) =     -3.22818  eV     1   --> B_2  G_4 D_2'  
     e(  3 -  4) =      2.18522  eV     2   --> E    G_5 D_5   
     e(  5 -  5) =      5.70865  eV     1   --> A_1  G_1 D_1   
     e(  6 -  6) =      5.97325  eV     1   --> B_2  G_4 D_2'  
     e(  7 -  8) =     14.13404  eV     2   --> E    G_5 D_5   
     e(  9 -  9) =     16.10146  eV     1   --> B_2  G_4 D_2'  
     e( 10 - 10) =     16.98800  eV     1   --> A_1  G_1 D_1   

 **************************************************************************

 **************************************************************************

                    xk=(  -0.96667,   0.00000,   0.00000  )

     Band symmetry, C_4v (4mm)  point group:

     e(  1 -  1) =     -3.92387  eV     1   --> A_1  G_1 D_1   
     e(  2 -  2) =     -3.46607  eV     1   --> B_2  G_4 D_2'  
     e(  3 -  4) =      2.17188  eV     2   --> E    G_5 D_5   
     e(  5 -  5) =      5.75678  eV     1   --> A_1  G_1 D_1   
     e(  6 -  6) =      5.88903  eV     1   --> B_2  G_4 D_2'  
     e(  7 -  8) =     14.23961  eV     2   --> E    G_5 D_5   
     e(  9 -  9) =     16.35886  eV     1   --> B_2  G_4 D_2'  
     e( 10 - 10) =     16.80729  eV     1   --> A_1  G_1 D_1   

 **************************************************************************

 **************************************************************************

                    xk=(  -1.00000,   0.00000,   0.00000  )

     zone border point and non-symmorphic group 
     symmetry decomposition not available

 **************************************************************************

 **************************************************************************

                    xk=(  -1.00000,   0.01667,   0.00000  )

     zone border point and non-symmorphic group 
     symmetry decomposition not available

 **************************************************************************

 **************************************************************************

                    xk=(  -1.00000,   0.03333,   0.00000  )

     zone border point and non-symmorphic group 
     symmetry decomposition not available

 **************************************************************************

 **************************************************************************

                    xk=(  -1.00000,   0.05000,   0.00000  )

     zone border point and non-symmorphic group 
     symmetry decomposition not available

 **************************************************************************

 **************************************************************************

                    xk=(  -1.00000,   0.06667,   0.00000  )

     zone border point and non-symmorphic group 
     symmetry decomposition not available

 **************************************************************************

 **************************************************************************

                    xk=(  -1.00000,   0.08333,   0.00000  )

     zone border point and non-symmorphic group 
     symmetry decomposition not available

 **************************************************************************

 **************************************************************************

                    xk=(  -1.00000,   0.10000,   0.00000  )

     zone border point and non-symmorphic group 
     symmetry decomposition not available

 **************************************************************************

 **************************************************************************

                    xk=(  -1.00000,   0.11667,   0.00000  )

     zone border point and non-symmorphic group 
     symmetry decomposition not available

 **************************************************************************

 **************************************************************************

                    xk=(  -1.00000,   0.13333,   0.00000  )

     zone border point and non-symmorphic group 
     symmetry decomposition not available

 **************************************************************************

 **************************************************************************

                    xk=(  -1.00000,   0.15000,   0.00000  )

     zone border point and non-symmorphic group 
     symmetry decomposition not available

 **************************************************************************

 **************************************************************************

                    xk=(  -1.00000,   0.16667,   0.00000  )

     zone border point and non-symmorphic group 
     symmetry decomposition not available

 **************************************************************************

 **************************************************************************

                    xk=(  -1.00000,   0.18333,   0.00000  )

     zone border point and non-symmorphic group 
     symmetry decomposition not available

 **************************************************************************

 **************************************************************************

                    xk=(  -1.00000,   0.20000,   0.00000  )

     zone border point and non-symmorphic group 
     symmetry decomposition not available

 **************************************************************************

 **************************************************************************

                    xk=(  -1.00000,   0.21667,   0.00000  )

     zone border point and non-symmorphic group 
     symmetry decomposition not available

 **************************************************************************

 **************************************************************************

                    xk=(  -1.00000,   0.23333,   0.00000  )

     zone border point and non-symmorphic group 
     symmetry decomposition not available

 **************************************************************************

 **************************************************************************

                    xk=(  -1.00000,   0.25000,   0.00000  )

     zone border point and non-symmorphic group 
     symmetry decomposition not available

 **************************************************************************

 **************************************************************************

                    xk=(  -1.00000,   0.26667,   0.00000  )

     zone border point and non-symmorphic group 
     symmetry decomposition not available

 **************************************************************************

 **************************************************************************

                    xk=(  -1.00000,   0.28333,   0.00000  )

     zone border point and non-symmorphic group 
     symmetry decomposition not available

 **************************************************************************

 **************************************************************************

                    xk=(  -1.00000,   0.30000,   0.00000  )

     zone border point and non-symmorphic group 
     symmetry decomposition not available

 **************************************************************************

 **************************************************************************

                    xk=(  -1.00000,   0.31667,   0.00000  )

     zone border point and non-symmorphic group 
     symmetry decomposition not available

 **************************************************************************

 **************************************************************************

                    xk=(  -1.00000,   0.33333,   0.00000  )

     zone border point and non-symmorphic group 
     symmetry decomposition not available

 **************************************************************************

 **************************************************************************

                    xk=(  -1.00000,   0.35000,   0.00000  )

     zone border point and non-symmorphic group 
     symmetry decomposition not available

 **************************************************************************

 **************************************************************************

                    xk=(  -1.00000,   0.36667,   0.00000  )

     zone border point and non-symmorphic group 
     symmetry decomposition not available

 **************************************************************************

 **************************************************************************

                    xk=(  -1.00000,   0.38333,   0.00000  )

     zone border point and non-symmorphic group 
     symmetry decomposition not available

 **************************************************************************

 **************************************************************************

                    xk=(  -1.00000,   0.40000,   0.00000  )

     zone border point and non-symmorphic group 
     symmetry decomposition not available

 **************************************************************************

 **************************************************************************

                    xk=(  -1.00000,   0.41667,   0.00000  )

     zone border point and non-symmorphic group 
     symmetry decomposition not available

 **************************************************************************

 **************************************************************************

                    xk=(  -1.00000,   0.43333,   0.00000  )

     zone border point and non-symmorphic group 
     symmetry decomposition not available

 **************************************************************************

 **************************************************************************

                    xk=(  -1.00000,   0.45000,   0.00000  )

     zone border point and non-symmorphic group 
     symmetry decomposition not available

 **************************************************************************

 **************************************************************************

                    xk=(  -1.00000,   0.46667,   0.00000  )

     zone border point and non-symmorphic group 
     symmetry decomposition not available

 **************************************************************************

 **************************************************************************

                    xk=(  -1.00000,   0.48333,   0.00000  )

     zone border point and non-symmorphic group 
     symmetry decomposition not available

 **************************************************************************

 **************************************************************************

                    xk=(  -1.00000,   0.50000,   0.00000  )

     zone border point and non-symmorphic group 
     symmetry decomposition not available

 **************************************************************************

 **************************************************************************

                    xk=(  -0.98333,   0.50000,   0.01667  )

     zone border point and non-symmorphic group 
     symmetry decomposition not available

 **************************************************************************

 **************************************************************************

                    xk=(  -0.96667,   0.50000,   0.03333  )

     zone border point and non-symmorphic group 
     symmetry decomposition not available

 **************************************************************************

 **************************************************************************

                    xk=(  -0.95000,   0.50000,   0.05000  )

     zone border point and non-symmorphic group 
     symmetry decomposition not available

 **************************************************************************

 **************************************************************************

                    xk=(  -0.93333,   0.50000,   0.06667  )

     zone border point and non-symmorphic group 
     symmetry decomposition not available

 **************************************************************************

 **************************************************************************

                    xk=(  -0.91667,   0.50000,   0.08333  )

     zone border point and non-symmorphic group 
     symmetry decomposition not available

 **************************************************************************

 **************************************************************************

                    xk=(  -0.90000,   0.50000,   0.10000  )

     zone border point and non-symmorphic group 
     symmetry decomposition not available

 **************************************************************************

 **************************************************************************

                    xk=(  -0.88333,   0.50000,   0.11667  )

     zone border point and non-symmorphic group 
     symmetry decomposition not available

 **************************************************************************

 **************************************************************************

                    xk=(  -0.86667,   0.50000,   0.13333  )

     zone border point and non-symmorphic group 
     symmetry decomposition not available

 **************************************************************************

 **************************************************************************

                    xk=(  -0.85000,   0.50000,   0.15000  )

     zone border point and non-symmorphic group 
     symmetry decomposition not available

 **************************************************************************

 **************************************************************************

                    xk=(  -0.83333,   0.50000,   0.16667  )

     zone border point and non-symmorphic group 
     symmetry decomposition not available

 **************************************************************************

 **************************************************************************

                    xk=(  -0.81667,   0.50000,   0.18333  )

     zone border point and non-symmorphic group 
     symmetry decomposition not available

 **************************************************************************

 **************************************************************************

                    xk=(  -0.80000,   0.50000,   0.20000  )

     zone border point and non-symmorphic group 
     symmetry decomposition not available

 **************************************************************************

 **************************************************************************

                    xk=(  -0.78333,   0.50000,   0.21667  )

     zone border point and non-symmorphic group 
     symmetry decomposition not available

 **************************************************************************

 **************************************************************************

                    xk=(  -0.76667,   0.50000,   0.23333  )

     zone border point and non-symmorphic group 
     symmetry decomposition not available

 **************************************************************************

 **************************************************************************

                    xk=(  -0.75000,   0.50000,   0.25000  )

     zone border point and non-symmorphic group 
     symmetry decomposition not available

 **************************************************************************

 **************************************************************************

                    xk=(  -0.73333,   0.50000,   0.26667  )

     zone border point and non-symmorphic group 
     symmetry decomposition not available

 **************************************************************************

 **************************************************************************

                    xk=(  -0.71667,   0.50000,   0.28333  )

     zone border point and non-symmorphic group 
     symmetry decomposition not available

 **************************************************************************

 **************************************************************************

                    xk=(  -0.70000,   0.50000,   0.30000  )

     zone border point and non-symmorphic group 
     symmetry decomposition not available

 **************************************************************************

 **************************************************************************

                    xk=(  -0.68333,   0.50000,   0.31667  )

     zone border point and non-symmorphic group 
     symmetry decomposition not available

 **************************************************************************

 **************************************************************************

                    xk=(  -0.66667,   0.50000,   0.33333  )

     zone border point and non-symmorphic group 
     symmetry decomposition not available

 **************************************************************************

 **************************************************************************

                    xk=(  -0.65000,   0.50000,   0.35000  )

     zone border point and non-symmorphic group 
     symmetry decomposition not available

 **************************************************************************

 **************************************************************************

                    xk=(  -0.63333,   0.50000,   0.36667  )

     zone border point and non-symmorphic group 
     symmetry decomposition not available

 **************************************************************************

 **************************************************************************

                    xk=(  -0.61667,   0.50000,   0.38333  )

     zone border point and non-symmorphic group 
     symmetry decomposition not available

 **************************************************************************

 **************************************************************************

                    xk=(  -0.60000,   0.50000,   0.40000  )

     zone border point and non-symmorphic group 
     symmetry decomposition not available

 **************************************************************************

 **************************************************************************

                    xk=(  -0.58333,   0.50000,   0.41667  )

     zone border point and non-symmorphic group 
     symmetry decomposition not available

 **************************************************************************

 **************************************************************************

                    xk=(  -0.56667,   0.50000,   0.43333  )

     zone border point and non-symmorphic group 
     symmetry decomposition not available

 **************************************************************************

 **************************************************************************

                    xk=(  -0.55000,   0.50000,   0.45000  )

     zone border point and non-symmorphic group 
     symmetry decomposition not available

 **************************************************************************

 **************************************************************************

                    xk=(  -0.53333,   0.50000,   0.46667  )

     zone border point and non-symmorphic group 
     symmetry decomposition not available

 **************************************************************************

 **************************************************************************

                    xk=(  -0.51667,   0.50000,   0.48333  )

     zone border point and non-symmorphic group 
     symmetry decomposition not available

 **************************************************************************

 **************************************************************************

                    xk=(  -0.50000,   0.50000,   0.50000  )

     zone border point and non-symmorphic group 
     symmetry decomposition not available

 **************************************************************************

 **************************************************************************

                    xk=(  -0.48333,   0.48333,   0.48333  )

     point group C_3v (3m)  
     there are  3 classes
     the character table:

       E     2C3   3s_v 
A_1    1.00  1.00  1.00
A_2    1.00  1.00 -1.00
E      2.00 -1.00  0.00

     the symmetry operations in each class and the name of the first element:

     E        1
                                                                 
     2C3      2    3
                                                                 
     3s_v     4    5    6
                                                                 

     Band symmetry, C_3v (3m)   point group:

     e(  1 -  1) =     -5.39842  eV     1   --> A_1  L_1       
     e(  2 -  2) =     -2.36279  eV     1   --> A_1  L_1       
     e(  3 -  4) =      3.74813  eV     2   --> E    L_3       
     e(  5 -  5) =      5.28693  eV     1   --> A_1  L_1       
     e(  6 -  7) =      8.73073  eV     2   --> E    L_3       
     e(  8 -  8) =     12.21929  eV     1   --> A_1  L_1       
     e(  9 -  9) =     15.33194  eV     1   --> A_1  L_1       
     e( 10 - 10) =     16.11666  eV     1   -->   ?

 **************************************************************************

 **************************************************************************

                    xk=(  -0.46667,   0.46667,   0.46667  )

     Band symmetry, C_3v (3m)   point group:

     e(  1 -  1) =     -5.43138  eV     1   --> A_1  L_1       
     e(  2 -  2) =     -2.30886  eV     1   --> A_1  L_1       
     e(  3 -  4) =      3.75482  eV     2   --> E    L_3       
     e(  5 -  5) =      5.29442  eV     1   --> A_1  L_1       
     e(  6 -  7) =      8.73387  eV     2   --> E    L_3       
     e(  8 -  8) =     12.22731  eV     1   --> A_1  L_1       
     e(  9 -  9) =     15.09541  eV     1   --> A_1  L_1       
     e( 10 - 10) =     15.88567  eV     1   -->   ?

 **************************************************************************

 **************************************************************************

                    xk=(  -0.45000,   0.45000,   0.45000  )

     Band symmetry, C_3v (3m)   point group:

     e(  1 -  1) =     -5.48372  eV     1   --> A_1  L_1       
     e(  2 -  2) =     -2.22159  eV     1   --> A_1  L_1       
     e(  3 -  4) =      3.76596  eV     2   --> E    L_3       
     e(  5 -  5) =      5.30688  eV     1   --> A_1  L_1       
     e(  6 -  7) =      8.73883  eV     2   --> E    L_3       
     e(  8 -  8) =     12.23995  eV     1   --> A_1  L_1       
     e(  9 -  9) =     14.81463  eV     1   --> A_1  L_1       
     e( 10 - 10) =     15.61453  eV     1   -->   ?

 **************************************************************************

 **************************************************************************

                    xk=(  -0.43333,   0.43333,   0.43333  )

     Band symmetry, C_3v (3m)   point group:

     e(  1 -  1) =     -5.55225  eV     1   --> A_1  L_1       
     e(  2 -  2) =     -2.10422  eV     1   --> A_1  L_1       
     e(  3 -  4) =      3.78154  eV     2   --> E    L_3       
     e(  5 -  5) =      5.32423  eV     1   --> A_1  L_1       
     e(  6 -  7) =      8.74521  eV     2   --> E    L_3       
     e(  8 -  8) =     12.25589  eV     1   --> A_1  L_1       
     e(  9 -  9) =     14.51946  eV     1   --> A_1  L_1       
     e( 10 - 10) =     15.33566  eV     1   -->   ?

 **************************************************************************

 **************************************************************************

                    xk=(  -0.41667,   0.41667,   0.41667  )

     Band symmetry, C_3v (3m)   point group:

     e(  1 -  1) =     -5.63341  eV     1   --> A_1  L_1       
     e(  2 -  2) =     -1.96031  eV     1   --> A_1  L_1       
     e(  3 -  4) =      3.80153  eV     2   --> E    L_3       
     e(  5 -  5) =      5.34651  eV     1   --> A_1  L_1       
     e(  6 -  7) =      8.75243  eV     2   --> E    L_3       
     e(  8 -  8) =     12.27278  eV     1   --> A_1  L_1       
     e(  9 -  9) =     14.22231  eV     1   --> A_1  L_1       
     e( 10 - 10) =     15.06099  eV     1   -->   ?

 **************************************************************************

 **************************************************************************

                    xk=(  -0.40000,   0.40000,   0.40000  )

     Band symmetry, C_3v (3m)   point group:

     e(  1 -  1) =     -5.72384  eV     1   --> A_1  L_1       
     e(  2 -  2) =     -1.79326  eV     1   --> A_1  L_1       
     e(  3 -  4) =      3.82590  eV     2   --> E    L_3       
     e(  5 -  5) =      5.37372  eV     1   --> A_1  L_1       
     e(  6 -  7) =      8.75974  eV     2   --> E    L_3       
     e(  8 -  8) =     12.28631  eV     1   --> A_1  L_1       
     e(  9 -  9) =     13.93172  eV     1   --> A_1  L_1       
     e( 10 - 10) =     14.79606  eV     1   -->   ?

 **************************************************************************

 **************************************************************************

                    xk=(  -0.38333,   0.38333,   0.38333  )

     Band symmetry, C_3v (3m)   point group:

     e(  1 -  1) =     -5.82055  eV     1   --> A_1  L_1       
     e(  2 -  2) =     -1.60626  eV     1   --> A_1  L_1       
     e(  3 -  4) =      3.85459  eV     2   --> E    L_3       
     e(  5 -  5) =      5.40555  eV     1   --> A_1  L_1       
     e(  6 -  7) =      8.76623  eV     2   --> E    L_3       
     e(  8 -  8) =     12.28849  eV     1   --> A_1  L_1       
     e(  9 -  9) =     13.65771  eV     1   --> A_1  L_1       
     e( 10 - 10) =     14.54415  eV     1   -->   ?

 **************************************************************************

 **************************************************************************

                    xk=(  -0.36667,   0.36667,   0.36667  )

     Band symmetry, C_3v (3m)   point group:

     e(  1 -  1) =     -5.92102  eV     1   --> A_1  L_1       
     e(  2 -  2) =     -1.40185  eV     1   --> A_1  L_1       
     e(  3 -  4) =      3.88755  eV     2   --> E    L_3       
     e(  5 -  5) =      5.44197  eV     1   --> A_1  L_1       
     e(  6 -  7) =      8.77078  eV     2   --> E    L_3       
     e(  8 -  8) =     12.26466  eV     1   --> A_1  L_1       
     e(  9 -  9) =     13.41587  eV     1   --> A_1  L_1       
     e( 10 - 10) =     14.30773  eV     1   -->   ?

 **************************************************************************

 **************************************************************************

                    xk=(  -0.35000,   0.35000,   0.35000  )

     Band symmetry, C_3v (3m)   point group:

     e(  1 -  1) =     -6.02327  eV     1   --> A_1  L_1       
     e(  2 -  2) =     -1.18215  eV     1   --> A_1  L_1       
     e(  3 -  4) =      3.92472  eV     2   --> E    L_3       
     e(  5 -  5) =      5.48293  eV     1   --> A_1  L_1       
     e(  6 -  7) =      8.77215  eV     2   --> E    L_3       
     e(  8 -  8) =     12.19200  eV     1   --> A_1  L_1       
     e(  9 -  9) =     13.22933  eV     1   --> A_1  L_1       
     e( 10 - 10) =     14.08889  eV     1   -->   ?

 **************************************************************************

 **************************************************************************

                    xk=(  -0.33333,   0.33333,   0.33333  )

     Band symmetry, C_3v (3m)   point group:

     e(  1 -  1) =     -6.12557  eV     1   --> A_1  L_1       
     e(  2 -  2) =     -0.94887  eV     1   --> A_1  L_1       
     e(  3 -  4) =      3.96601  eV     2   --> E    L_3       
     e(  5 -  5) =      5.52821  eV     1   --> A_1  L_1       
     e(  6 -  7) =      8.76897  eV     2   --> E    L_3       
     e(  8 -  8) =     12.05038  eV     1   --> A_1  L_1       
     e(  9 -  9) =     13.11799  eV     1   --> A_1  L_1       
     e( 10 - 10) =     13.88960  eV     1   -->   ?

 **************************************************************************

 **************************************************************************

                    xk=(  -0.31667,   0.31667,   0.31667  )

     Band symmetry, C_3v (3m)   point group:

     e(  1 -  1) =     -6.22671  eV     1   --> A_1  L_1       
     e(  2 -  2) =     -0.70355  eV     1   --> A_1  L_1       
     e(  3 -  4) =      4.01131  eV     2   --> E    L_3       
     e(  5 -  5) =      5.57756  eV     1   --> A_1  L_1       
     e(  6 -  7) =      8.75977  eV     2   --> E    L_3       
     e(  8 -  8) =     11.84309  eV     1   --> A_1  L_1       
     e(  9 -  9) =     13.07767  eV     1   --> A_1  L_1       
     e( 10 - 10) =     13.71174  eV     1   -->   ?

 **************************************************************************

 **************************************************************************

                    xk=(  -0.30000,   0.30000,   0.30000  )

     Band symmetry, C_3v (3m)   point group:

     e(  1 -  1) =     -6.32567  eV     1   --> A_1  L_1       
     e(  2 -  2) =     -0.44733  eV     1   --> A_1  L_1       
     e(  3 -  4) =      4.06048  eV     2   --> E    L_3       
     e(  5 -  5) =      5.63070  eV     1   --> A_1  L_1       
     e(  6 -  7) =      8.74314  eV     2   --> E    L_3       
     e(  8 -  8) =     11.59160  eV     1   --> A_1  L_1       
     e(  9 -  9) =     13.08535  eV     1   --> A_1  L_1       
     e( 10 - 10) =     13.55706  eV     1   -->   ?

 **************************************************************************

 **************************************************************************

                    xk=(  -0.28333,   0.28333,   0.28333  )

     Band symmetry, C_3v (3m)   point group:

     e(  1 -  1) =     -6.42160  eV     1   --> A_1  L_1       
     e(  2 -  2) =     -0.18119  eV     1   --> A_1  L_1       
     e(  3 -  4) =      4.11335  eV     2   --> E    L_3       
     e(  5 -  5) =      5.68725  eV     1   --> A_1  L_1       
     e(  6 -  7) =      8.71779  eV     2   --> E    L_3       
     e(  8 -  8) =     11.31542  eV     1   --> A_1  L_1       
     e(  9 -  9) =     13.11948  eV     1   --> A_1  L_1       
     e( 10 - 10) =     13.42715  eV     1   -->   ?

 **************************************************************************

 **************************************************************************

                    xk=(  -0.26667,   0.26667,   0.26667  )

     Band symmetry, C_3v (3m)   point group:

     e(  1 -  1) =     -6.51389  eV     1   --> A_1  L_1       
     e(  2 -  2) =      0.09400  eV     1   --> A_1  L_1       
     e(  3 -  4) =      4.16973  eV     2   --> E    L_3       
     e(  5 -  5) =      5.74673  eV     1   --> A_1  L_1       
     e(  6 -  7) =      8.68269  eV     2   --> E    L_3       
     e(  8 -  8) =     11.02609  eV     1   --> A_1  L_1       
     e(  9 -  9) =     13.16494  eV     1   --> A_1  L_1       
     e( 10 - 10) =     13.32330  eV     1   -->   ?

 **************************************************************************

 **************************************************************************

                    xk=(  -0.25000,   0.25000,   0.25000  )

     Band symmetry, C_3v (3m)   point group:

     e(  1 -  1) =     -6.60205  eV     1   --> A_1  L_1       
     e(  2 -  2) =      0.37748  eV     1   --> A_1  L_1       
     e(  3 -  4) =      4.22935  eV     2   --> E    L_3       
     e(  5 -  5) =      5.80850  eV     1   --> A_1  L_1       
     e(  6 -  7) =      8.63718  eV     2   --> E    L_3       
     e(  8 -  8) =     10.72989  eV     1   --> A_1  L_1       
     e(  9 -  9) =     13.21025  eV     1   --> A_1  L_1       
     e( 10 - 10) =     13.24638  eV     1   -->   ?

 **************************************************************************

 **************************************************************************

                    xk=(  -0.23333,   0.23333,   0.23333  )

     Band symmetry, C_3v (3m)   point group:

     e(  1 -  1) =     -6.68565  eV     1   --> A_1  L_1       
     e(  2 -  2) =      0.66857  eV     1   --> A_1  L_1       
     e(  3 -  4) =      4.29192  eV     2   --> E    L_3       
     e(  5 -  5) =      5.87172  eV     1   --> A_1  L_1       
     e(  6 -  7) =      8.58114  eV     2   --> E    L_3       
     e(  8 -  8) =     10.43033  eV     1   --> A_1  L_1       
     e(  9 - 10) =     13.19675  eV     2   --> E    L_3       

 **************************************************************************

 **************************************************************************

                    xk=(  -0.21667,   0.21667,   0.21667  )

     Band symmetry, C_3v (3m)   point group:

     e(  1 -  1) =     -6.76435  eV     1   --> A_1  L_1       
     e(  2 -  2) =      0.96665  eV     1   --> A_1  L_1       
     e(  3 -  4) =      4.35707  eV     2   --> E    L_3       
     e(  5 -  5) =      5.93554  eV     1   --> A_1  L_1       
     e(  6 -  7) =      8.51499  eV     2   --> E    L_3       
     e(  8 -  8) =     10.12978  eV     1   --> A_1  L_1       
     e(  9 - 10) =     13.17422  eV     2   --> E    L_3       

 **************************************************************************

 **************************************************************************

                    xk=(  -0.20000,   0.20000,   0.20000  )

     Band symmetry, C_3v (3m)   point group:

     e(  1 -  1) =     -6.83794  eV     1   --> A_1  L_1       
     e(  2 -  2) =      1.27106  eV     1   --> A_1  L_1       
     e(  3 -  4) =      4.42432  eV     2   --> E    L_3       
     e(  5 -  5) =      5.99831  eV     1   --> A_1  L_1       
     e(  6 -  7) =      8.43970  eV     2   --> E    L_3       
     e(  8 -  8) =      9.82991  eV     1   --> A_1  L_1       
     e(  9 - 10) =     13.17805  eV     2   --> E    L_3       

 **************************************************************************

 **************************************************************************

                    xk=(  -0.18333,   0.18333,   0.18333  )

     Band symmetry, C_3v (3m)   point group:

     e(  1 -  1) =     -6.90620  eV     1   --> A_1  L_1       
     e(  2 -  2) =      1.58115  eV     1   --> A_1  L_1       
     e(  3 -  4) =      4.49313  eV     2   --> E    L_3       
     e(  5 -  5) =      6.05816  eV     1   --> A_1  L_1       
     e(  6 -  7) =      8.35677  eV     2   --> E    L_3       
     e(  8 -  8) =      9.53241  eV     1   --> A_1  L_1       
     e(  9 -  9) =     13.15493  eV     1   --> A_1  L_1       
     e( 10 - 10) =     13.20699  eV     1   -->   ?

 **************************************************************************

 **************************************************************************

                    xk=(  -0.16667,   0.16667,   0.16667  )

     Band symmetry, C_3v (3m)   point group:

     e(  1 -  1) =     -6.96893  eV     1   --> A_1  L_1       
     e(  2 -  2) =      1.89629  eV     1   --> A_1  L_1       
     e(  3 -  4) =      4.56282  eV     2   --> E    L_3       
     e(  5 -  5) =      6.11246  eV     1   --> A_1  L_1       
     e(  6 -  7) =      8.26811  eV     2   --> E    L_3       
     e(  8 -  8) =      9.23929  eV     1   --> A_1  L_1       
     e(  9 -  9) =     13.03473  eV     1   --> A_1  L_1       
     e( 10 - 10) =     13.25935  eV     1   -->   ?

 **************************************************************************

 **************************************************************************

                    xk=(  -0.15000,   0.15000,   0.15000  )

     Band symmetry, C_3v (3m)   point group:

     e(  1 -  1) =     -7.02599  eV     1   --> A_1  L_1       
     e(  2 -  2) =      2.21581  eV     1   --> A_1  L_1       
     e(  3 -  4) =      4.63256  eV     2   --> E    L_3       
     e(  5 -  5) =      6.15769  eV     1   --> A_1  L_1       
     e(  6 -  7) =      8.17593  eV     2   --> E    L_3       
     e(  8 -  8) =      8.95353  eV     1   --> A_1  L_1       
     e(  9 -  9) =     12.87752  eV     1   --> A_1  L_1       
     e( 10 - 10) =     13.33314  eV     1   -->   ?

 **************************************************************************

 **************************************************************************

                    xk=(  -0.13333,   0.13333,   0.13333  )

     Band symmetry, C_3v (3m)   point group:

     e(  1 -  1) =     -7.07730  eV     1   --> A_1  L_1       
     e(  2 -  2) =      2.53884  eV     1   --> A_1  L_1       
     e(  3 -  4) =      4.70135  eV     2   --> E    L_3       
     e(  5 -  5) =      6.18866  eV     1   --> A_1  L_1       
     e(  6 -  7) =      8.08268  eV     2   --> E    L_3       
     e(  8 -  8) =      8.67912  eV     1   --> A_1  L_1       
     e(  9 -  9) =     12.69863  eV     1   --> A_1  L_1       
     e( 10 - 10) =     13.42601  eV     1   -->   ?

 **************************************************************************

 **************************************************************************

                    xk=(  -0.11667,   0.11667,   0.11667  )

     Band symmetry, C_3v (3m)   point group:

     e(  1 -  1) =     -7.12274  eV     1   --> A_1  L_1       
     e(  2 -  2) =      2.86455  eV     1   --> A_1  L_1       
     e(  3 -  4) =      4.76802  eV     2   --> E    L_3       
     e(  5 -  5) =      6.19830  eV     1   --> A_1  L_1       
     e(  6 -  7) =      7.99094  eV     2   --> E    L_3       
     e(  8 -  8) =      8.42205  eV     1   --> A_1  L_1       
     e(  9 -  9) =     12.51296  eV     1   --> A_1  L_1       
     e( 10 - 10) =     13.53532  eV     1   -->   ?

 **************************************************************************

 **************************************************************************

                    xk=(  -0.10000,   0.10000,   0.10000  )

     Band symmetry, C_3v (3m)   point group:

     e(  1 -  1) =     -7.16229  eV     1   --> A_1  L_1       
     e(  2 -  2) =      3.19191  eV     1   --> A_1  L_1       
     e(  3 -  4) =      4.83115  eV     2   --> E    L_3       
     e(  5 -  5) =      6.17740  eV     1   --> A_1  L_1       
     e(  6 -  7) =      7.90340  eV     2   --> E    L_3       
     e(  8 -  8) =      8.19041  eV     1   --> A_1  L_1       
     e(  9 -  9) =     12.33247  eV     1   --> A_1  L_1       
     e( 10 - 10) =     13.65791  eV     1   -->   ?

 **************************************************************************

 **************************************************************************

                    xk=(  -0.08333,   0.08333,   0.08333  )

     Band symmetry, C_3v (3m)   point group:

     e(  1 -  1) =     -7.19580  eV     1   --> A_1  L_1       
     e(  2 -  2) =      3.51974  eV     1   --> A_1  L_1       
     e(  3 -  4) =      4.88915  eV     2   --> E    L_3       
     e(  5 -  5) =      6.11551  eV     1   --> A_1  L_1       
     e(  6 -  7) =      7.82283  eV     2   --> E    L_3       
     e(  8 -  8) =      7.99361  eV     1   --> A_1  L_1       
     e(  9 -  9) =     12.16641  eV     1   --> A_1  L_1       
     e( 10 - 10) =     13.78980  eV     1   -->   ?

 **************************************************************************

 **************************************************************************

                    xk=(  -0.06667,   0.06667,   0.06667  )

     Band symmetry, C_3v (3m)   point group:

     e(  1 -  1) =     -7.22327  eV     1   --> A_1  L_1       
     e(  2 -  2) =      3.84647  eV     1   --> A_1  L_1       
     e(  3 -  4) =      4.94026  eV     2   --> E    L_3       
     e(  5 -  5) =      6.00391  eV     1   --> A_1  L_1       
     e(  6 -  7) =      7.75195  eV     2   --> E    L_3       
     e(  8 -  8) =      7.83947  eV     1   --> A_1  L_1       
     e(  9 -  9) =     12.02166  eV     1   --> A_1  L_1       
     e( 10 - 10) =     13.92553  eV     1   -->   ?

 **************************************************************************

 **************************************************************************

                    xk=(  -0.05000,   0.05000,   0.05000  )

     Band symmetry, C_3v (3m)   point group:

     e(  1 -  1) =     -7.24470  eV     1   --> A_1  L_1       
     e(  2 -  2) =      4.17010  eV     1   --> A_1  L_1       
     e(  3 -  4) =      4.98263  eV     2   --> E    L_3       
     e(  5 -  5) =      5.83991  eV     1   --> A_1  L_1       
     e(  6 -  7) =      7.69340  eV     2   --> E    L_3       
     e(  8 -  8) =      7.73026  eV     1   --> A_1  L_1       
     e(  9 -  9) =     11.90354  eV     1   --> A_1  L_1       
     e( 10 - 10) =     14.05711  eV     1   -->   ?

 **************************************************************************

 **************************************************************************

                    xk=(  -0.03333,   0.03333,   0.03333  )

     Band symmetry, C_3v (3m)   point group:

     e(  1 -  1) =     -7.26002  eV     1   --> A_1  L_1       
     e(  2 -  2) =      4.48795  eV     1   --> A_1  L_1       
     e(  3 -  4) =      5.01446  eV     2   --> E    L_3       
     e(  5 -  5) =      5.62877  eV     1   --> A_1  L_1       
     e(  6 -  7) =      7.64957  eV     2   --> E    L_3       
     e(  8 -  8) =      7.66135  eV     1   --> A_1  L_1       
     e(  9 -  9) =     11.81620  eV     1   --> A_1  L_1       
     e( 10 - 10) =     14.17242  eV     1   -->   ?

 **************************************************************************

 **************************************************************************

                    xk=(  -0.01667,   0.01667,   0.01667  )

     Band symmetry, C_3v (3m)   point group:

     e(  1 -  1) =     -7.26923  eV     1   --> A_1  L_1       
     e(  2 -  2) =      4.79539  eV     1   --> A_1  L_1       
     e(  3 -  4) =      5.03425  eV     2   --> E    L_3       
     e(  5 -  5) =      5.38152  eV     1   --> A_1  L_1       
     e(  6 -  7) =      7.62241  eV     2   --> E    L_3       
     e(  8 -  8) =      7.62461  eV     1   --> A_1  L_1       
     e(  9 -  9) =     11.76256  eV     1   --> A_1  L_1       
     e( 10 - 10) =     14.25437  eV     1   -->   ?

 **************************************************************************

 **************************************************************************

                    xk=(   0.00000,   0.00000,   0.00000  )

     point group O_h (m-3m) 
     there are 10 classes
     the character table:

       E     8C3   3C2   6C4   6C2'  i     8S6   3s_h  6S4   6s_d 
A_1g   1.00  1.00  1.00  1.00  1.00  1.00  1.00  1.00  1.00  1.00
A_2g   1.00  1.00  1.00 -1.00 -1.00  1.00  1.00  1.00 -1.00 -1.00
E_g    2.00 -1.00  2.00  0.00  0.00  2.00 -1.00  2.00  0.00  0.00
T_1g   3.00  0.00 -1.00  1.00 -1.00  3.00  0.00 -1.00  1.00 -1.00
T_2g   3.00  0.00 -1.00 -1.00  1.00  3.00  0.00 -1.00 -1.00  1.00
A_1u   1.00  1.00  1.00  1.00  1.00 -1.00 -1.00 -1.00 -1.00 -1.00
A_2u   1.00  1.00  1.00 -1.00 -1.00 -1.00 -1.00 -1.00  1.00  1.00
E_u    2.00 -1.00  2.00  0.00  0.00 -2.00  1.00 -2.00  0.00  0.00
T_1u   3.00  0.00 -1.00  1.00 -1.00 -3.00  0.00  1.00 -1.00  1.00
T_2u   3.00  0.00 -1.00 -1.00  1.00 -3.00  0.00  1.00  1.00 -1.00

     the symmetry operations in each class and the name of the first element:

     E        1
                                                                 
     8C3     17   19   20   18   24   21   22   23
                                                                 
     3C2      2    4    3
                                                                 
     6C4      7    8   15   16   12   11
                                                                 
     6C2'     5    6   14   13   10    9
                                                                 
     i       25
                                                                 
     8S6     41   43   44   42   48   45   46   47
                                                                 
     3s_h    26   28   27
                                                                 
     6S4     31   32   39   40   36   35
                                                                 
     6s_d    29   30   38   37   34   33
                                                                 

     Band symmetry, O_h (m-3m)  point group:

     e(  1 -  1) =     -7.27229  eV     1   --> A_1g G_1   G_1+
     e(  2 -  4) =      5.04097  eV     3   --> T_2g G_25' G_5+
     e(  5 -  5) =      5.15528  eV     1   --> A_2u G_2'  G_2-
     e(  6 -  8) =      7.61321  eV     3   --> T_1u G_15  G_4-
     e(  9 -  9) =     11.74448  eV     1   --> A_1g G_1   G_1+
     e( 10 - 10) =     14.28458  eV     1   -->   ?

 **************************************************************************

     BANDS        :      6.60s CPU      9.28s WALL


   This run was terminated on:  20: 2:23   7Oct2020            

=------------------------------------------------------------------------------=
   JOB DONE.
=------------------------------------------------------------------------------=
