
     Program PWSCF v.6.4.1 starts on  7Oct2020 at 19:41:23 

     This program is part of the open-source Quantum ESPRESSO suite
     for quantum simulation of materials; please cite
         "P. Giannozzi et al., J. Phys.:Condens. Matter 21 395502 (2009);
         "P. Giannozzi et al., J. Phys.:Condens. Matter 29 465901 (2017);
          URL http://www.quantum-espresso.org", 
     in publications or presentations arising from this work. More details at
     http://www.quantum-espresso.org/quote

     Parallel version (MPI), running on     1 processors

     MPI processes distributed on     1 nodes
     Waiting for input...
     Reading input from standard input
Warning: card &IONS ignored
Warning: card / ignored
Warning: card &CELL ignored
Warning: card / ignored

     Current dimensions of program PWSCF are:
     Max number of different atomic species (ntypx) = 10
     Max number of k-points (npk) =  40000
     Max angular momentum in pseudopotentials (lmaxx) =  3
     Message from routine iosys:
     wrong startingpot: use default (2)

     Atomic positions and unit cell read from directory:
     /home/modeler/Lab2/test/pwscf.save/


     Subspace diagonalization in iterative solution of the eigenvalue problem:
     a serial algorithm will be used


     G-vector sticks info
     --------------------
     sticks:   dense  smooth     PW     G-vecs:    dense   smooth      PW
     Sum         499     499    151                 6975     6975    1243



     bravais-lattice index     =            2
     lattice parameter (alat)  =      10.8171  a.u.
     unit-cell volume          =     316.4269 (a.u.)^3
     number of atoms/cell      =            2
     number of atomic types    =            1
     number of electrons       =         8.00
     number of Kohn-Sham states=           10
     kinetic-energy cutoff     =      30.0000  Ry
     charge density cutoff     =     120.0000  Ry
     Exchange-correlation      = SLA PZ NOGX NOGC ( 1  1  0  0 0 0)

     celldm(1)=  10.817107  celldm(2)=   0.000000  celldm(3)=   0.000000
     celldm(4)=   0.000000  celldm(5)=   0.000000  celldm(6)=   0.000000

     crystal axes: (cart. coord. in units of alat)
               a(1) = (  -0.500000   0.000000   0.500000 )  
               a(2) = (   0.000000   0.500000   0.500000 )  
               a(3) = (  -0.500000   0.500000   0.000000 )  

     reciprocal axes: (cart. coord. in units 2 pi/alat)
               b(1) = ( -1.000000 -1.000000  1.000000 )  
               b(2) = (  1.000000  1.000000  1.000000 )  
               b(3) = ( -1.000000  1.000000 -1.000000 )  


     PseudoPot. # 1 for Ge read from file:
     /home/modeler/qe_pseudo/Ge.pz-bhs.UPF
     MD5 check sum: 4f8fee77de72fb640d24dcbf01bda005
     Pseudo is Norm-conserving, Zval =  4.0
     Generated by new atomic code, or converted to UPF format
     Using radial grid of  291 points,  2 beta functions with: 
                l(1) =   0
                l(2) =   1

     atomic species   valence    mass     pseudopotential
        Ge             4.00    72.61000     Ge( 1.00)

     48 Sym. Ops., with inversion, found (24 have fractional translation)


                                    s                        frac. trans.

      isym =  1     identity                                     

 cryst.   s( 1) = (     1          0          0      )
                  (     0          1          0      )
                  (     0          0          1      )

 cart.    s( 1) = (  1.0000000  0.0000000  0.0000000 )
                  (  0.0000000  1.0000000  0.0000000 )
                  (  0.0000000  0.0000000  1.0000000 )


      isym =  2     180 deg rotation - cart. axis [0,0,1]        

 cryst.   s( 2) = (     0          1         -1      )
                  (     1          0         -1      )
                  (     0          0         -1      )

 cart.    s( 2) = ( -1.0000000  0.0000000  0.0000000 )
                  (  0.0000000 -1.0000000  0.0000000 )
                  (  0.0000000  0.0000000  1.0000000 )


      isym =  3     180 deg rotation - cart. axis [0,1,0]        

 cryst.   s( 3) = (    -1          0          0      )
                  (    -1          0          1      )
                  (    -1          1          0      )

 cart.    s( 3) = ( -1.0000000  0.0000000  0.0000000 )
                  (  0.0000000  1.0000000  0.0000000 )
                  (  0.0000000  0.0000000 -1.0000000 )


      isym =  4     180 deg rotation - cart. axis [1,0,0]        

 cryst.   s( 4) = (     0         -1          1      )
                  (     0         -1          0      )
                  (     1         -1          0      )

 cart.    s( 4) = (  1.0000000  0.0000000  0.0000000 )
                  (  0.0000000 -1.0000000  0.0000000 )
                  (  0.0000000  0.0000000 -1.0000000 )


      isym =  5     180 deg rotation - cart. axis [1,1,0]        

 cryst.   s( 5) = (     0         -1          0      )    f =(  0.2500000 )
                  (    -1          0          0      )       (  0.2500000 )
                  (     0          0         -1      )       (  0.2500000 )

 cart.    s( 5) = (  0.0000000  1.0000000  0.0000000 )    f =( -0.2500000 )
                  (  1.0000000  0.0000000  0.0000000 )       (  0.2500000 )
                  (  0.0000000  0.0000000 -1.0000000 )       (  0.2500000 )


      isym =  6     180 deg rotation - cart. axis [1,-1,0]       

 cryst.   s( 6) = (    -1          0          1      )    f =(  0.2500000 )
                  (     0         -1          1      )       (  0.2500000 )
                  (     0          0          1      )       (  0.2500000 )

 cart.    s( 6) = (  0.0000000 -1.0000000  0.0000000 )    f =( -0.2500000 )
                  ( -1.0000000  0.0000000  0.0000000 )       (  0.2500000 )
                  (  0.0000000  0.0000000 -1.0000000 )       (  0.2500000 )


      isym =  7      90 deg rotation - cart. axis [0,0,-1]       

 cryst.   s( 7) = (     0          1          0      )    f =(  0.2500000 )
                  (     0          1         -1      )       (  0.2500000 )
                  (    -1          1          0      )       (  0.2500000 )

 cart.    s( 7) = (  0.0000000  1.0000000  0.0000000 )    f =( -0.2500000 )
                  ( -1.0000000  0.0000000  0.0000000 )       (  0.2500000 )
                  (  0.0000000  0.0000000  1.0000000 )       (  0.2500000 )


      isym =  8      90 deg rotation - cart. axis [0,0,1]        

 cryst.   s( 8) = (     1          0         -1      )    f =(  0.2500000 )
                  (     1          0          0      )       (  0.2500000 )
                  (     1         -1          0      )       (  0.2500000 )

 cart.    s( 8) = (  0.0000000 -1.0000000  0.0000000 )    f =( -0.2500000 )
                  (  1.0000000  0.0000000  0.0000000 )       (  0.2500000 )
                  (  0.0000000  0.0000000  1.0000000 )       (  0.2500000 )


      isym =  9     180 deg rotation - cart. axis [1,0,1]        

 cryst.   s( 9) = (    -1          0          0      )    f =(  0.2500000 )
                  (     0          0         -1      )       (  0.2500000 )
                  (     0         -1          0      )       (  0.2500000 )

 cart.    s( 9) = (  0.0000000  0.0000000  1.0000000 )    f =( -0.2500000 )
                  (  0.0000000 -1.0000000  0.0000000 )       (  0.2500000 )
                  (  1.0000000  0.0000000  0.0000000 )       (  0.2500000 )


      isym = 10     180 deg rotation - cart. axis [-1,0,1]       

 cryst.   s(10) = (     1          0          0      )    f =(  0.2500000 )
                  (     1         -1          0      )       (  0.2500000 )
                  (     1          0         -1      )       (  0.2500000 )

 cart.    s(10) = (  0.0000000  0.0000000 -1.0000000 )    f =( -0.2500000 )
                  (  0.0000000 -1.0000000  0.0000000 )       (  0.2500000 )
                  ( -1.0000000  0.0000000  0.0000000 )       (  0.2500000 )


      isym = 11      90 deg rotation - cart. axis [0,1,0]        

 cryst.   s(11) = (     0          1         -1      )    f =(  0.2500000 )
                  (    -1          1          0      )       (  0.2500000 )
                  (     0          1          0      )       (  0.2500000 )

 cart.    s(11) = (  0.0000000  0.0000000  1.0000000 )    f =( -0.2500000 )
                  (  0.0000000  1.0000000  0.0000000 )       (  0.2500000 )
                  ( -1.0000000  0.0000000  0.0000000 )       (  0.2500000 )


      isym = 12      90 deg rotation - cart. axis [0,-1,0]       

 cryst.   s(12) = (     0         -1          1      )    f =(  0.2500000 )
                  (     0          0          1      )       (  0.2500000 )
                  (    -1          0          1      )       (  0.2500000 )

 cart.    s(12) = (  0.0000000  0.0000000 -1.0000000 )    f =( -0.2500000 )
                  (  0.0000000  1.0000000  0.0000000 )       (  0.2500000 )
                  (  1.0000000  0.0000000  0.0000000 )       (  0.2500000 )


      isym = 13     180 deg rotation - cart. axis [0,1,1]        

 cryst.   s(13) = (    -1          1          0      )    f =(  0.2500000 )
                  (     0          1          0      )       (  0.2500000 )
                  (     0          1         -1      )       (  0.2500000 )

 cart.    s(13) = ( -1.0000000  0.0000000  0.0000000 )    f =( -0.2500000 )
                  (  0.0000000  0.0000000  1.0000000 )       (  0.2500000 )
                  (  0.0000000  1.0000000  0.0000000 )       (  0.2500000 )


      isym = 14     180 deg rotation - cart. axis [0,1,-1]       

 cryst.   s(14) = (     0          0         -1      )    f =(  0.2500000 )
                  (     0         -1          0      )       (  0.2500000 )
                  (    -1          0          0      )       (  0.2500000 )

 cart.    s(14) = ( -1.0000000  0.0000000  0.0000000 )    f =( -0.2500000 )
                  (  0.0000000  0.0000000 -1.0000000 )       (  0.2500000 )
                  (  0.0000000 -1.0000000  0.0000000 )       (  0.2500000 )


      isym = 15      90 deg rotation - cart. axis [-1,0,0]       

 cryst.   s(15) = (     0          0          1      )    f =(  0.2500000 )
                  (    -1          0          1      )       (  0.2500000 )
                  (     0         -1          1      )       (  0.2500000 )

 cart.    s(15) = (  1.0000000  0.0000000  0.0000000 )    f =( -0.2500000 )
                  (  0.0000000  0.0000000  1.0000000 )       (  0.2500000 )
                  (  0.0000000 -1.0000000  0.0000000 )       (  0.2500000 )


      isym = 16      90 deg rotation - cart. axis [1,0,0]        

 cryst.   s(16) = (     1         -1          0      )    f =(  0.2500000 )
                  (     1          0         -1      )       (  0.2500000 )
                  (     1          0          0      )       (  0.2500000 )

 cart.    s(16) = (  1.0000000  0.0000000  0.0000000 )    f =( -0.2500000 )
                  (  0.0000000  0.0000000 -1.0000000 )       (  0.2500000 )
                  (  0.0000000  1.0000000  0.0000000 )       (  0.2500000 )


      isym = 17     120 deg rotation - cart. axis [-1,-1,-1]     

 cryst.   s(17) = (    -1          0          1      )
                  (    -1          1          0      )
                  (    -1          0          0      )

 cart.    s(17) = (  0.0000000  1.0000000  0.0000000 )
                  (  0.0000000  0.0000000  1.0000000 )
                  (  1.0000000  0.0000000  0.0000000 )


      isym = 18     120 deg rotation - cart. axis [-1,1,1]       

 cryst.   s(18) = (     0          1          0      )
                  (     0          0          1      )
                  (     1          0          0      )

 cart.    s(18) = (  0.0000000 -1.0000000  0.0000000 )
                  (  0.0000000  0.0000000  1.0000000 )
                  ( -1.0000000  0.0000000  0.0000000 )


      isym = 19     120 deg rotation - cart. axis [1,1,-1]       

 cryst.   s(19) = (     1          0         -1      )
                  (     0          0         -1      )
                  (     0          1         -1      )

 cart.    s(19) = (  0.0000000  1.0000000  0.0000000 )
                  (  0.0000000  0.0000000 -1.0000000 )
                  ( -1.0000000  0.0000000  0.0000000 )


      isym = 20     120 deg rotation - cart. axis [1,-1,1]       

 cryst.   s(20) = (     0         -1          0      )
                  (     1         -1          0      )
                  (     0         -1          1      )

 cart.    s(20) = (  0.0000000 -1.0000000  0.0000000 )
                  (  0.0000000  0.0000000 -1.0000000 )
                  (  1.0000000  0.0000000  0.0000000 )


      isym = 21     120 deg rotation - cart. axis [1,1,1]        

 cryst.   s(21) = (     0          0         -1      )
                  (     0          1         -1      )
                  (     1          0         -1      )

 cart.    s(21) = (  0.0000000  0.0000000  1.0000000 )
                  (  1.0000000  0.0000000  0.0000000 )
                  (  0.0000000  1.0000000  0.0000000 )


      isym = 22     120 deg rotation - cart. axis [-1,1,-1]      

 cryst.   s(22) = (    -1          1          0      )
                  (    -1          0          0      )
                  (    -1          0          1      )

 cart.    s(22) = (  0.0000000  0.0000000  1.0000000 )
                  ( -1.0000000  0.0000000  0.0000000 )
                  (  0.0000000 -1.0000000  0.0000000 )


      isym = 23     120 deg rotation - cart. axis [1,-1,-1]      

 cryst.   s(23) = (     0          0          1      )
                  (     1          0          0      )
                  (     0          1          0      )

 cart.    s(23) = (  0.0000000  0.0000000 -1.0000000 )
                  ( -1.0000000  0.0000000  0.0000000 )
                  (  0.0000000  1.0000000  0.0000000 )


      isym = 24     120 deg rotation - cart. axis [-1,-1,1]      

 cryst.   s(24) = (     1         -1          0      )
                  (     0         -1          1      )
                  (     0         -1          0      )

 cart.    s(24) = (  0.0000000  0.0000000 -1.0000000 )
                  (  1.0000000  0.0000000  0.0000000 )
                  (  0.0000000 -1.0000000  0.0000000 )


      isym = 25     inversion                                    

 cryst.   s(25) = (    -1          0          0      )    f =(  0.2500000 )
                  (     0         -1          0      )       (  0.2500000 )
                  (     0          0         -1      )       (  0.2500000 )

 cart.    s(25) = ( -1.0000000  0.0000000  0.0000000 )    f =( -0.2500000 )
                  (  0.0000000 -1.0000000  0.0000000 )       (  0.2500000 )
                  (  0.0000000  0.0000000 -1.0000000 )       (  0.2500000 )


      isym = 26     inv. 180 deg rotation - cart. axis [0,0,1]   

 cryst.   s(26) = (     0         -1          1      )    f =(  0.2500000 )
                  (    -1          0          1      )       (  0.2500000 )
                  (     0          0          1      )       (  0.2500000 )

 cart.    s(26) = (  1.0000000  0.0000000  0.0000000 )    f =( -0.2500000 )
                  (  0.0000000  1.0000000  0.0000000 )       (  0.2500000 )
                  (  0.0000000  0.0000000 -1.0000000 )       (  0.2500000 )


      isym = 27     inv. 180 deg rotation - cart. axis [0,1,0]   

 cryst.   s(27) = (     1          0          0      )    f =(  0.2500000 )
                  (     1          0         -1      )       (  0.2500000 )
                  (     1         -1          0      )       (  0.2500000 )

 cart.    s(27) = (  1.0000000  0.0000000  0.0000000 )    f =( -0.2500000 )
                  (  0.0000000 -1.0000000  0.0000000 )       (  0.2500000 )
                  (  0.0000000  0.0000000  1.0000000 )       (  0.2500000 )


      isym = 28     inv. 180 deg rotation - cart. axis [1,0,0]   

 cryst.   s(28) = (     0          1         -1      )    f =(  0.2500000 )
                  (     0          1          0      )       (  0.2500000 )
                  (    -1          1          0      )       (  0.2500000 )

 cart.    s(28) = ( -1.0000000  0.0000000  0.0000000 )    f =( -0.2500000 )
                  (  0.0000000  1.0000000  0.0000000 )       (  0.2500000 )
                  (  0.0000000  0.0000000  1.0000000 )       (  0.2500000 )


      isym = 29     inv. 180 deg rotation - cart. axis [1,1,0]   

 cryst.   s(29) = (     0          1          0      )
                  (     1          0          0      )
                  (     0          0          1      )

 cart.    s(29) = (  0.0000000 -1.0000000  0.0000000 )
                  ( -1.0000000  0.0000000  0.0000000 )
                  (  0.0000000  0.0000000  1.0000000 )


      isym = 30     inv. 180 deg rotation - cart. axis [1,-1,0]  

 cryst.   s(30) = (     1          0         -1      )
                  (     0          1         -1      )
                  (     0          0         -1      )

 cart.    s(30) = (  0.0000000  1.0000000  0.0000000 )
                  (  1.0000000  0.0000000  0.0000000 )
                  (  0.0000000  0.0000000  1.0000000 )


      isym = 31     inv.  90 deg rotation - cart. axis [0,0,-1]  

 cryst.   s(31) = (     0         -1          0      )
                  (     0         -1          1      )
                  (     1         -1          0      )

 cart.    s(31) = (  0.0000000 -1.0000000  0.0000000 )
                  (  1.0000000  0.0000000  0.0000000 )
                  (  0.0000000  0.0000000 -1.0000000 )


      isym = 32     inv.  90 deg rotation - cart. axis [0,0,1]   

 cryst.   s(32) = (    -1          0          1      )
                  (    -1          0          0      )
                  (    -1          1          0      )

 cart.    s(32) = (  0.0000000  1.0000000  0.0000000 )
                  ( -1.0000000  0.0000000  0.0000000 )
                  (  0.0000000  0.0000000 -1.0000000 )


      isym = 33     inv. 180 deg rotation - cart. axis [1,0,1]   

 cryst.   s(33) = (     1          0          0      )
                  (     0          0          1      )
                  (     0          1          0      )

 cart.    s(33) = (  0.0000000  0.0000000 -1.0000000 )
                  (  0.0000000  1.0000000  0.0000000 )
                  ( -1.0000000  0.0000000  0.0000000 )


      isym = 34     inv. 180 deg rotation - cart. axis [-1,0,1]  

 cryst.   s(34) = (    -1          0          0      )
                  (    -1          1          0      )
                  (    -1          0          1      )

 cart.    s(34) = (  0.0000000  0.0000000  1.0000000 )
                  (  0.0000000  1.0000000  0.0000000 )
                  (  1.0000000  0.0000000  0.0000000 )


      isym = 35     inv.  90 deg rotation - cart. axis [0,1,0]   

 cryst.   s(35) = (     0         -1          1      )
                  (     1         -1          0      )
                  (     0         -1          0      )

 cart.    s(35) = (  0.0000000  0.0000000 -1.0000000 )
                  (  0.0000000 -1.0000000  0.0000000 )
                  (  1.0000000  0.0000000  0.0000000 )


      isym = 36     inv.  90 deg rotation - cart. axis [0,-1,0]  

 cryst.   s(36) = (     0          1         -1      )
                  (     0          0         -1      )
                  (     1          0         -1      )

 cart.    s(36) = (  0.0000000  0.0000000  1.0000000 )
                  (  0.0000000 -1.0000000  0.0000000 )
                  ( -1.0000000  0.0000000  0.0000000 )


      isym = 37     inv. 180 deg rotation - cart. axis [0,1,1]   

 cryst.   s(37) = (     1         -1          0      )
                  (     0         -1          0      )
                  (     0         -1          1      )

 cart.    s(37) = (  1.0000000  0.0000000  0.0000000 )
                  (  0.0000000  0.0000000 -1.0000000 )
                  (  0.0000000 -1.0000000  0.0000000 )


      isym = 38     inv. 180 deg rotation - cart. axis [0,1,-1]  

 cryst.   s(38) = (     0          0          1      )
                  (     0          1          0      )
                  (     1          0          0      )

 cart.    s(38) = (  1.0000000  0.0000000  0.0000000 )
                  (  0.0000000  0.0000000  1.0000000 )
                  (  0.0000000  1.0000000  0.0000000 )


      isym = 39     inv.  90 deg rotation - cart. axis [-1,0,0]  

 cryst.   s(39) = (     0          0         -1      )
                  (     1          0         -1      )
                  (     0          1         -1      )

 cart.    s(39) = ( -1.0000000  0.0000000  0.0000000 )
                  (  0.0000000  0.0000000 -1.0000000 )
                  (  0.0000000  1.0000000  0.0000000 )


      isym = 40     inv.  90 deg rotation - cart. axis [1,0,0]   

 cryst.   s(40) = (    -1          1          0      )
                  (    -1          0          1      )
                  (    -1          0          0      )

 cart.    s(40) = ( -1.0000000  0.0000000  0.0000000 )
                  (  0.0000000  0.0000000  1.0000000 )
                  (  0.0000000 -1.0000000  0.0000000 )


      isym = 41     inv. 120 deg rotation - cart. axis [-1,-1,-1]

 cryst.   s(41) = (     1          0         -1      )    f =(  0.2500000 )
                  (     1         -1          0      )       (  0.2500000 )
                  (     1          0          0      )       (  0.2500000 )

 cart.    s(41) = (  0.0000000 -1.0000000  0.0000000 )    f =( -0.2500000 )
                  (  0.0000000  0.0000000 -1.0000000 )       (  0.2500000 )
                  ( -1.0000000  0.0000000  0.0000000 )       (  0.2500000 )


      isym = 42     inv. 120 deg rotation - cart. axis [-1,1,1]  

 cryst.   s(42) = (     0         -1          0      )    f =(  0.2500000 )
                  (     0          0         -1      )       (  0.2500000 )
                  (    -1          0          0      )       (  0.2500000 )

 cart.    s(42) = (  0.0000000  1.0000000  0.0000000 )    f =( -0.2500000 )
                  (  0.0000000  0.0000000 -1.0000000 )       (  0.2500000 )
                  (  1.0000000  0.0000000  0.0000000 )       (  0.2500000 )


      isym = 43     inv. 120 deg rotation - cart. axis [1,1,-1]  

 cryst.   s(43) = (    -1          0          1      )    f =(  0.2500000 )
                  (     0          0          1      )       (  0.2500000 )
                  (     0         -1          1      )       (  0.2500000 )

 cart.    s(43) = (  0.0000000 -1.0000000  0.0000000 )    f =( -0.2500000 )
                  (  0.0000000  0.0000000  1.0000000 )       (  0.2500000 )
                  (  1.0000000  0.0000000  0.0000000 )       (  0.2500000 )


      isym = 44     inv. 120 deg rotation - cart. axis [1,-1,1]  

 cryst.   s(44) = (     0          1          0      )    f =(  0.2500000 )
                  (    -1          1          0      )       (  0.2500000 )
                  (     0          1         -1      )       (  0.2500000 )

 cart.    s(44) = (  0.0000000  1.0000000  0.0000000 )    f =( -0.2500000 )
                  (  0.0000000  0.0000000  1.0000000 )       (  0.2500000 )
                  ( -1.0000000  0.0000000  0.0000000 )       (  0.2500000 )


      isym = 45     inv. 120 deg rotation - cart. axis [1,1,1]   

 cryst.   s(45) = (     0          0          1      )    f =(  0.2500000 )
                  (     0         -1          1      )       (  0.2500000 )
                  (    -1          0          1      )       (  0.2500000 )

 cart.    s(45) = (  0.0000000  0.0000000 -1.0000000 )    f =( -0.2500000 )
                  ( -1.0000000  0.0000000  0.0000000 )       (  0.2500000 )
                  (  0.0000000 -1.0000000  0.0000000 )       (  0.2500000 )


      isym = 46     inv. 120 deg rotation - cart. axis [-1,1,-1] 

 cryst.   s(46) = (     1         -1          0      )    f =(  0.2500000 )
                  (     1          0          0      )       (  0.2500000 )
                  (     1          0         -1      )       (  0.2500000 )

 cart.    s(46) = (  0.0000000  0.0000000 -1.0000000 )    f =( -0.2500000 )
                  (  1.0000000  0.0000000  0.0000000 )       (  0.2500000 )
                  (  0.0000000  1.0000000  0.0000000 )       (  0.2500000 )


      isym = 47     inv. 120 deg rotation - cart. axis [1,-1,-1] 

 cryst.   s(47) = (     0          0         -1      )    f =(  0.2500000 )
                  (    -1          0          0      )       (  0.2500000 )
                  (     0         -1          0      )       (  0.2500000 )

 cart.    s(47) = (  0.0000000  0.0000000  1.0000000 )    f =( -0.2500000 )
                  (  1.0000000  0.0000000  0.0000000 )       (  0.2500000 )
                  (  0.0000000 -1.0000000  0.0000000 )       (  0.2500000 )


      isym = 48     inv. 120 deg rotation - cart. axis [-1,-1,1] 

 cryst.   s(48) = (    -1          1          0      )    f =(  0.2500000 )
                  (     0          1         -1      )       (  0.2500000 )
                  (     0          1          0      )       (  0.2500000 )

 cart.    s(48) = (  0.0000000  0.0000000  1.0000000 )    f =( -0.2500000 )
                  ( -1.0000000  0.0000000  0.0000000 )       (  0.2500000 )
                  (  0.0000000  1.0000000  0.0000000 )       (  0.2500000 )


     point group O_h (m-3m) 
     there are 10 classes
     the character table:

       E     8C3   3C2   6C4   6C2'  i     8S6   3s_h  6S4   6s_d 
A_1g   1.00  1.00  1.00  1.00  1.00  1.00  1.00  1.00  1.00  1.00
A_2g   1.00  1.00  1.00 -1.00 -1.00  1.00  1.00  1.00 -1.00 -1.00
E_g    2.00 -1.00  2.00  0.00  0.00  2.00 -1.00  2.00  0.00  0.00
T_1g   3.00  0.00 -1.00  1.00 -1.00  3.00  0.00 -1.00  1.00 -1.00
T_2g   3.00  0.00 -1.00 -1.00  1.00  3.00  0.00 -1.00 -1.00  1.00
A_1u   1.00  1.00  1.00  1.00  1.00 -1.00 -1.00 -1.00 -1.00 -1.00
A_2u   1.00  1.00  1.00 -1.00 -1.00 -1.00 -1.00 -1.00  1.00  1.00
E_u    2.00 -1.00  2.00  0.00  0.00 -2.00  1.00 -2.00  0.00  0.00
T_1u   3.00  0.00 -1.00  1.00 -1.00 -3.00  0.00  1.00 -1.00  1.00
T_2u   3.00  0.00 -1.00 -1.00  1.00 -3.00  0.00  1.00  1.00 -1.00

     the symmetry operations in each class and the name of the first element:

     E        1
          identity                                               
     8C3     17   19   20   18   24   21   22   23
          120 deg rotation - cart. axis [-1,-1,-1]               
     3C2      2    4    3
          180 deg rotation - cart. axis [0,0,1]                  
     6C4      7    8   15   16   12   11
           90 deg rotation - cart. axis [0,0,-1]                 
     6C2'     5    6   14   13   10    9
          180 deg rotation - cart. axis [1,1,0]                  
     i       25
          inversion                                              
     8S6     41   43   44   42   48   45   46   47
          inv. 120 deg rotation - cart. axis [-1,-1,-1]          
     3s_h    26   28   27
          inv. 180 deg rotation - cart. axis [0,0,1]             
     6S4     31   32   39   40   36   35
          inv.  90 deg rotation - cart. axis [0,0,-1]            
     6s_d    29   30   38   37   34   33
          inv. 180 deg rotation - cart. axis [1,1,0]             

   Cartesian axes

     site n.     atom                  positions (alat units)
         1           Ge  tau(   1) = (   0.0000000   0.0000000   0.0000000  )
         2           Ge  tau(   2) = (   0.2500000   0.2500000   0.2500000  )

   Crystallographic axes

     site n.     atom                  positions (cryst. coord.)
         1           Ge  tau(   1) = (  0.0000000  0.0000000  0.0000000  )
         2           Ge  tau(   2) = ( -0.2500000  0.7500000 -0.2500000  )

     number of k points=   151
                       cart. coord. in units 2pi/alat
        k(    1) = (  -1.0000000   0.5000000   0.0000000), wk =   0.0132450
        k(    2) = (  -0.9666667   0.4833333   0.0000000), wk =   0.0132450
        k(    3) = (  -0.9333333   0.4666667   0.0000000), wk =   0.0132450
        k(    4) = (  -0.9000000   0.4500000   0.0000000), wk =   0.0132450
        k(    5) = (  -0.8666667   0.4333333   0.0000000), wk =   0.0132450
        k(    6) = (  -0.8333333   0.4166667   0.0000000), wk =   0.0132450
        k(    7) = (  -0.8000000   0.4000000   0.0000000), wk =   0.0132450
        k(    8) = (  -0.7666667   0.3833333   0.0000000), wk =   0.0132450
        k(    9) = (  -0.7333333   0.3666667   0.0000000), wk =   0.0132450
        k(   10) = (  -0.7000000   0.3500000  -0.0000000), wk =   0.0132450
        k(   11) = (  -0.6666667   0.3333333   0.0000000), wk =   0.0132450
        k(   12) = (  -0.6333333   0.3166667  -0.0000000), wk =   0.0132450
        k(   13) = (  -0.6000000   0.3000000   0.0000000), wk =   0.0132450
        k(   14) = (  -0.5666667   0.2833333   0.0000000), wk =   0.0132450
        k(   15) = (  -0.5333333   0.2666667   0.0000000), wk =   0.0132450
        k(   16) = (  -0.5000000   0.2500000   0.0000000), wk =   0.0132450
        k(   17) = (  -0.4666667   0.2333333   0.0000000), wk =   0.0132450
        k(   18) = (  -0.4333333   0.2166667   0.0000000), wk =   0.0132450
        k(   19) = (  -0.4000000   0.2000000   0.0000000), wk =   0.0132450
        k(   20) = (  -0.3666667   0.1833333   0.0000000), wk =   0.0132450
        k(   21) = (  -0.3333333   0.1666667   0.0000000), wk =   0.0132450
        k(   22) = (  -0.3000000   0.1500000  -0.0000000), wk =   0.0132450
        k(   23) = (  -0.2666667   0.1333333  -0.0000000), wk =   0.0132450
        k(   24) = (  -0.2333333   0.1166667   0.0000000), wk =   0.0132450
        k(   25) = (  -0.2000000   0.1000000   0.0000000), wk =   0.0132450
        k(   26) = (  -0.1666667   0.0833333  -0.0000000), wk =   0.0132450
        k(   27) = (  -0.1333333   0.0666667   0.0000000), wk =   0.0132450
        k(   28) = (  -0.1000000   0.0500000   0.0000000), wk =   0.0132450
        k(   29) = (  -0.0666667   0.0333333  -0.0000000), wk =   0.0132450
        k(   30) = (  -0.0333333   0.0166667  -0.0000000), wk =   0.0132450
        k(   31) = (   0.0000000   0.0000000   0.0000000), wk =   0.0132450
        k(   32) = (  -0.0333333   0.0000000   0.0000000), wk =   0.0132450
        k(   33) = (  -0.0666667   0.0000000   0.0000000), wk =   0.0132450
        k(   34) = (  -0.1000000   0.0000000   0.0000000), wk =   0.0132450
        k(   35) = (  -0.1333333   0.0000000   0.0000000), wk =   0.0132450
        k(   36) = (  -0.1666667   0.0000000   0.0000000), wk =   0.0132450
        k(   37) = (  -0.2000000   0.0000000   0.0000000), wk =   0.0132450
        k(   38) = (  -0.2333333   0.0000000   0.0000000), wk =   0.0132450
        k(   39) = (  -0.2666667   0.0000000   0.0000000), wk =   0.0132450
        k(   40) = (  -0.3000000   0.0000000   0.0000000), wk =   0.0132450
        k(   41) = (  -0.3333333   0.0000000   0.0000000), wk =   0.0132450
        k(   42) = (  -0.3666667   0.0000000   0.0000000), wk =   0.0132450
        k(   43) = (  -0.4000000   0.0000000   0.0000000), wk =   0.0132450
        k(   44) = (  -0.4333333   0.0000000   0.0000000), wk =   0.0132450
        k(   45) = (  -0.4666667   0.0000000   0.0000000), wk =   0.0132450
        k(   46) = (  -0.5000000   0.0000000   0.0000000), wk =   0.0132450
        k(   47) = (  -0.5333333   0.0000000   0.0000000), wk =   0.0132450
        k(   48) = (  -0.5666667   0.0000000   0.0000000), wk =   0.0132450
        k(   49) = (  -0.6000000   0.0000000   0.0000000), wk =   0.0132450
        k(   50) = (  -0.6333333   0.0000000   0.0000000), wk =   0.0132450
        k(   51) = (  -0.6666667   0.0000000   0.0000000), wk =   0.0132450
        k(   52) = (  -0.7000000   0.0000000   0.0000000), wk =   0.0132450
        k(   53) = (  -0.7333333   0.0000000   0.0000000), wk =   0.0132450
        k(   54) = (  -0.7666667   0.0000000   0.0000000), wk =   0.0132450
        k(   55) = (  -0.8000000   0.0000000   0.0000000), wk =   0.0132450
        k(   56) = (  -0.8333333   0.0000000   0.0000000), wk =   0.0132450
        k(   57) = (  -0.8666667   0.0000000   0.0000000), wk =   0.0132450
        k(   58) = (  -0.9000000   0.0000000   0.0000000), wk =   0.0132450
        k(   59) = (  -0.9333333   0.0000000   0.0000000), wk =   0.0132450
        k(   60) = (  -0.9666667   0.0000000   0.0000000), wk =   0.0132450
        k(   61) = (  -1.0000000   0.0000000   0.0000000), wk =   0.0132450
        k(   62) = (  -1.0000000   0.0166667   0.0000000), wk =   0.0132450
        k(   63) = (  -1.0000000   0.0333333   0.0000000), wk =   0.0132450
        k(   64) = (  -1.0000000   0.0500000   0.0000000), wk =   0.0132450
        k(   65) = (  -1.0000000   0.0666667   0.0000000), wk =   0.0132450
        k(   66) = (  -1.0000000   0.0833333   0.0000000), wk =   0.0132450
        k(   67) = (  -1.0000000   0.1000000   0.0000000), wk =   0.0132450
        k(   68) = (  -1.0000000   0.1166667   0.0000000), wk =   0.0132450
        k(   69) = (  -1.0000000   0.1333333   0.0000000), wk =   0.0132450
        k(   70) = (  -1.0000000   0.1500000   0.0000000), wk =   0.0132450
        k(   71) = (  -1.0000000   0.1666667   0.0000000), wk =   0.0132450
        k(   72) = (  -1.0000000   0.1833333   0.0000000), wk =   0.0132450
        k(   73) = (  -1.0000000   0.2000000   0.0000000), wk =   0.0132450
        k(   74) = (  -1.0000000   0.2166667   0.0000000), wk =   0.0132450
        k(   75) = (  -1.0000000   0.2333333   0.0000000), wk =   0.0132450
        k(   76) = (  -1.0000000   0.2500000   0.0000000), wk =   0.0132450
        k(   77) = (  -1.0000000   0.2666667   0.0000000), wk =   0.0132450
        k(   78) = (  -1.0000000   0.2833333   0.0000000), wk =   0.0132450
        k(   79) = (  -1.0000000   0.3000000   0.0000000), wk =   0.0132450
        k(   80) = (  -1.0000000   0.3166667   0.0000000), wk =   0.0132450
        k(   81) = (  -1.0000000   0.3333333   0.0000000), wk =   0.0132450
        k(   82) = (  -1.0000000   0.3500000   0.0000000), wk =   0.0132450
        k(   83) = (  -1.0000000   0.3666667   0.0000000), wk =   0.0132450
        k(   84) = (  -1.0000000   0.3833333   0.0000000), wk =   0.0132450
        k(   85) = (  -1.0000000   0.4000000   0.0000000), wk =   0.0132450
        k(   86) = (  -1.0000000   0.4166667   0.0000000), wk =   0.0132450
        k(   87) = (  -1.0000000   0.4333333   0.0000000), wk =   0.0132450
        k(   88) = (  -1.0000000   0.4500000   0.0000000), wk =   0.0132450
        k(   89) = (  -1.0000000   0.4666667   0.0000000), wk =   0.0132450
        k(   90) = (  -1.0000000   0.4833333   0.0000000), wk =   0.0132450
        k(   91) = (  -1.0000000   0.5000000   0.0000000), wk =   0.0132450
        k(   92) = (  -0.9833333   0.5000000   0.0166667), wk =   0.0132450
        k(   93) = (  -0.9666667   0.5000000   0.0333333), wk =   0.0132450
        k(   94) = (  -0.9500000   0.5000000   0.0500000), wk =   0.0132450
        k(   95) = (  -0.9333333   0.5000000   0.0666667), wk =   0.0132450
        k(   96) = (  -0.9166667   0.5000000   0.0833333), wk =   0.0132450
        k(   97) = (  -0.9000000   0.5000000   0.1000000), wk =   0.0132450
        k(   98) = (  -0.8833333   0.5000000   0.1166667), wk =   0.0132450
        k(   99) = (  -0.8666667   0.5000000   0.1333333), wk =   0.0132450
        k(  100) = (  -0.8500000   0.5000000   0.1500000), wk =   0.0132450
        k(  101) = (  -0.8333333   0.5000000   0.1666667), wk =   0.0132450
        k(  102) = (  -0.8166667   0.5000000   0.1833333), wk =   0.0132450
        k(  103) = (  -0.8000000   0.5000000   0.2000000), wk =   0.0132450
        k(  104) = (  -0.7833333   0.5000000   0.2166667), wk =   0.0132450
        k(  105) = (  -0.7666667   0.5000000   0.2333333), wk =   0.0132450
        k(  106) = (  -0.7500000   0.5000000   0.2500000), wk =   0.0132450
        k(  107) = (  -0.7333333   0.5000000   0.2666667), wk =   0.0132450
        k(  108) = (  -0.7166667   0.5000000   0.2833333), wk =   0.0132450
        k(  109) = (  -0.7000000   0.5000000   0.3000000), wk =   0.0132450
        k(  110) = (  -0.6833333   0.5000000   0.3166667), wk =   0.0132450
        k(  111) = (  -0.6666667   0.5000000   0.3333333), wk =   0.0132450
        k(  112) = (  -0.6500000   0.5000000   0.3500000), wk =   0.0132450
        k(  113) = (  -0.6333333   0.5000000   0.3666667), wk =   0.0132450
        k(  114) = (  -0.6166667   0.5000000   0.3833333), wk =   0.0132450
        k(  115) = (  -0.6000000   0.5000000   0.4000000), wk =   0.0132450
        k(  116) = (  -0.5833333   0.5000000   0.4166667), wk =   0.0132450
        k(  117) = (  -0.5666667   0.5000000   0.4333333), wk =   0.0132450
        k(  118) = (  -0.5500000   0.5000000   0.4500000), wk =   0.0132450
        k(  119) = (  -0.5333333   0.5000000   0.4666667), wk =   0.0132450
        k(  120) = (  -0.5166667   0.5000000   0.4833333), wk =   0.0132450
        k(  121) = (  -0.5000000   0.5000000   0.5000000), wk =   0.0132450
        k(  122) = (  -0.4833333   0.4833333   0.4833333), wk =   0.0132450
        k(  123) = (  -0.4666667   0.4666667   0.4666667), wk =   0.0132450
        k(  124) = (  -0.4500000   0.4500000   0.4500000), wk =   0.0132450
        k(  125) = (  -0.4333333   0.4333333   0.4333333), wk =   0.0132450
        k(  126) = (  -0.4166667   0.4166667   0.4166667), wk =   0.0132450
        k(  127) = (  -0.4000000   0.4000000   0.4000000), wk =   0.0132450
        k(  128) = (  -0.3833333   0.3833333   0.3833333), wk =   0.0132450
        k(  129) = (  -0.3666667   0.3666667   0.3666667), wk =   0.0132450
        k(  130) = (  -0.3500000   0.3500000   0.3500000), wk =   0.0132450
        k(  131) = (  -0.3333333   0.3333333   0.3333333), wk =   0.0132450
        k(  132) = (  -0.3166667   0.3166667   0.3166667), wk =   0.0132450
        k(  133) = (  -0.3000000   0.3000000   0.3000000), wk =   0.0132450
        k(  134) = (  -0.2833333   0.2833333   0.2833333), wk =   0.0132450
        k(  135) = (  -0.2666667   0.2666667   0.2666667), wk =   0.0132450
        k(  136) = (  -0.2500000   0.2500000   0.2500000), wk =   0.0132450
        k(  137) = (  -0.2333333   0.2333333   0.2333333), wk =   0.0132450
        k(  138) = (  -0.2166667   0.2166667   0.2166667), wk =   0.0132450
        k(  139) = (  -0.2000000   0.2000000   0.2000000), wk =   0.0132450
        k(  140) = (  -0.1833333   0.1833333   0.1833333), wk =   0.0132450
        k(  141) = (  -0.1666667   0.1666667   0.1666667), wk =   0.0132450
        k(  142) = (  -0.1500000   0.1500000   0.1500000), wk =   0.0132450
        k(  143) = (  -0.1333333   0.1333333   0.1333333), wk =   0.0132450
        k(  144) = (  -0.1166667   0.1166667   0.1166667), wk =   0.0132450
        k(  145) = (  -0.1000000   0.1000000   0.1000000), wk =   0.0132450
        k(  146) = (  -0.0833333   0.0833333   0.0833333), wk =   0.0132450
        k(  147) = (  -0.0666667   0.0666667   0.0666667), wk =   0.0132450
        k(  148) = (  -0.0500000   0.0500000   0.0500000), wk =   0.0132450
        k(  149) = (  -0.0333333   0.0333333   0.0333333), wk =   0.0132450
        k(  150) = (  -0.0166667   0.0166667   0.0166667), wk =   0.0132450
        k(  151) = (   0.0000000   0.0000000   0.0000000), wk =   0.0132450

                       cryst. coord.
        k(    1) = (   0.5000000   0.2500000   0.7500000), wk =   0.0132450
        k(    2) = (   0.4833333   0.2416667   0.7250000), wk =   0.0132450
        k(    3) = (   0.4666667   0.2333333   0.7000000), wk =   0.0132450
        k(    4) = (   0.4500000   0.2250000   0.6750000), wk =   0.0132450
        k(    5) = (   0.4333333   0.2166667   0.6500000), wk =   0.0132450
        k(    6) = (   0.4166667   0.2083333   0.6250000), wk =   0.0132450
        k(    7) = (   0.4000000   0.2000000   0.6000000), wk =   0.0132450
        k(    8) = (   0.3833333   0.1916667   0.5750000), wk =   0.0132450
        k(    9) = (   0.3666667   0.1833333   0.5500000), wk =   0.0132450
        k(   10) = (   0.3500000   0.1750000   0.5250000), wk =   0.0132450
        k(   11) = (   0.3333333   0.1666667   0.5000000), wk =   0.0132450
        k(   12) = (   0.3166667   0.1583333   0.4750000), wk =   0.0132450
        k(   13) = (   0.3000000   0.1500000   0.4500000), wk =   0.0132450
        k(   14) = (   0.2833333   0.1416667   0.4250000), wk =   0.0132450
        k(   15) = (   0.2666667   0.1333333   0.4000000), wk =   0.0132450
        k(   16) = (   0.2500000   0.1250000   0.3750000), wk =   0.0132450
        k(   17) = (   0.2333333   0.1166667   0.3500000), wk =   0.0132450
        k(   18) = (   0.2166667   0.1083333   0.3250000), wk =   0.0132450
        k(   19) = (   0.2000000   0.1000000   0.3000000), wk =   0.0132450
        k(   20) = (   0.1833333   0.0916667   0.2750000), wk =   0.0132450
        k(   21) = (   0.1666667   0.0833333   0.2500000), wk =   0.0132450
        k(   22) = (   0.1500000   0.0750000   0.2250000), wk =   0.0132450
        k(   23) = (   0.1333333   0.0666667   0.2000000), wk =   0.0132450
        k(   24) = (   0.1166667   0.0583333   0.1750000), wk =   0.0132450
        k(   25) = (   0.1000000   0.0500000   0.1500000), wk =   0.0132450
        k(   26) = (   0.0833333   0.0416667   0.1250000), wk =   0.0132450
        k(   27) = (   0.0666667   0.0333333   0.1000000), wk =   0.0132450
        k(   28) = (   0.0500000   0.0250000   0.0750000), wk =   0.0132450
        k(   29) = (   0.0333333   0.0166667   0.0500000), wk =   0.0132450
        k(   30) = (   0.0166667   0.0083333   0.0250000), wk =   0.0132450
        k(   31) = (   0.0000000   0.0000000   0.0000000), wk =   0.0132450
        k(   32) = (   0.0166667   0.0000000   0.0166667), wk =   0.0132450
        k(   33) = (   0.0333333   0.0000000   0.0333333), wk =   0.0132450
        k(   34) = (   0.0500000   0.0000000   0.0500000), wk =   0.0132450
        k(   35) = (   0.0666667   0.0000000   0.0666667), wk =   0.0132450
        k(   36) = (   0.0833333   0.0000000   0.0833333), wk =   0.0132450
        k(   37) = (   0.1000000   0.0000000   0.1000000), wk =   0.0132450
        k(   38) = (   0.1166667   0.0000000   0.1166667), wk =   0.0132450
        k(   39) = (   0.1333333   0.0000000   0.1333333), wk =   0.0132450
        k(   40) = (   0.1500000   0.0000000   0.1500000), wk =   0.0132450
        k(   41) = (   0.1666667   0.0000000   0.1666667), wk =   0.0132450
        k(   42) = (   0.1833333   0.0000000   0.1833333), wk =   0.0132450
        k(   43) = (   0.2000000   0.0000000   0.2000000), wk =   0.0132450
        k(   44) = (   0.2166667   0.0000000   0.2166667), wk =   0.0132450
        k(   45) = (   0.2333333   0.0000000   0.2333333), wk =   0.0132450
        k(   46) = (   0.2500000   0.0000000   0.2500000), wk =   0.0132450
        k(   47) = (   0.2666667   0.0000000   0.2666667), wk =   0.0132450
        k(   48) = (   0.2833333   0.0000000   0.2833333), wk =   0.0132450
        k(   49) = (   0.3000000   0.0000000   0.3000000), wk =   0.0132450
        k(   50) = (   0.3166667   0.0000000   0.3166667), wk =   0.0132450
        k(   51) = (   0.3333333   0.0000000   0.3333333), wk =   0.0132450
        k(   52) = (   0.3500000   0.0000000   0.3500000), wk =   0.0132450
        k(   53) = (   0.3666667   0.0000000   0.3666667), wk =   0.0132450
        k(   54) = (   0.3833333   0.0000000   0.3833333), wk =   0.0132450
        k(   55) = (   0.4000000   0.0000000   0.4000000), wk =   0.0132450
        k(   56) = (   0.4166667   0.0000000   0.4166667), wk =   0.0132450
        k(   57) = (   0.4333333   0.0000000   0.4333333), wk =   0.0132450
        k(   58) = (   0.4500000   0.0000000   0.4500000), wk =   0.0132450
        k(   59) = (   0.4666667   0.0000000   0.4666667), wk =   0.0132450
        k(   60) = (   0.4833333   0.0000000   0.4833333), wk =   0.0132450
        k(   61) = (   0.5000000   0.0000000   0.5000000), wk =   0.0132450
        k(   62) = (   0.5000000   0.0083333   0.5083333), wk =   0.0132450
        k(   63) = (   0.5000000   0.0166667   0.5166667), wk =   0.0132450
        k(   64) = (   0.5000000   0.0250000   0.5250000), wk =   0.0132450
        k(   65) = (   0.5000000   0.0333333   0.5333333), wk =   0.0132450
        k(   66) = (   0.5000000   0.0416667   0.5416667), wk =   0.0132450
        k(   67) = (   0.5000000   0.0500000   0.5500000), wk =   0.0132450
        k(   68) = (   0.5000000   0.0583333   0.5583333), wk =   0.0132450
        k(   69) = (   0.5000000   0.0666667   0.5666667), wk =   0.0132450
        k(   70) = (   0.5000000   0.0750000   0.5750000), wk =   0.0132450
        k(   71) = (   0.5000000   0.0833333   0.5833333), wk =   0.0132450
        k(   72) = (   0.5000000   0.0916667   0.5916667), wk =   0.0132450
        k(   73) = (   0.5000000   0.1000000   0.6000000), wk =   0.0132450
        k(   74) = (   0.5000000   0.1083333   0.6083333), wk =   0.0132450
        k(   75) = (   0.5000000   0.1166667   0.6166667), wk =   0.0132450
        k(   76) = (   0.5000000   0.1250000   0.6250000), wk =   0.0132450
        k(   77) = (   0.5000000   0.1333333   0.6333333), wk =   0.0132450
        k(   78) = (   0.5000000   0.1416667   0.6416667), wk =   0.0132450
        k(   79) = (   0.5000000   0.1500000   0.6500000), wk =   0.0132450
        k(   80) = (   0.5000000   0.1583333   0.6583333), wk =   0.0132450
        k(   81) = (   0.5000000   0.1666667   0.6666667), wk =   0.0132450
        k(   82) = (   0.5000000   0.1750000   0.6750000), wk =   0.0132450
        k(   83) = (   0.5000000   0.1833333   0.6833333), wk =   0.0132450
        k(   84) = (   0.5000000   0.1916667   0.6916667), wk =   0.0132450
        k(   85) = (   0.5000000   0.2000000   0.7000000), wk =   0.0132450
        k(   86) = (   0.5000000   0.2083333   0.7083333), wk =   0.0132450
        k(   87) = (   0.5000000   0.2166667   0.7166667), wk =   0.0132450
        k(   88) = (   0.5000000   0.2250000   0.7250000), wk =   0.0132450
        k(   89) = (   0.5000000   0.2333333   0.7333333), wk =   0.0132450
        k(   90) = (   0.5000000   0.2416667   0.7416667), wk =   0.0132450
        k(   91) = (   0.5000000   0.2500000   0.7500000), wk =   0.0132450
        k(   92) = (   0.5000000   0.2583333   0.7416667), wk =   0.0132450
        k(   93) = (   0.5000000   0.2666667   0.7333333), wk =   0.0132450
        k(   94) = (   0.5000000   0.2750000   0.7250000), wk =   0.0132450
        k(   95) = (   0.5000000   0.2833333   0.7166667), wk =   0.0132450
        k(   96) = (   0.5000000   0.2916667   0.7083333), wk =   0.0132450
        k(   97) = (   0.5000000   0.3000000   0.7000000), wk =   0.0132450
        k(   98) = (   0.5000000   0.3083333   0.6916667), wk =   0.0132450
        k(   99) = (   0.5000000   0.3166667   0.6833333), wk =   0.0132450
        k(  100) = (   0.5000000   0.3250000   0.6750000), wk =   0.0132450
        k(  101) = (   0.5000000   0.3333333   0.6666667), wk =   0.0132450
        k(  102) = (   0.5000000   0.3416667   0.6583333), wk =   0.0132450
        k(  103) = (   0.5000000   0.3500000   0.6500000), wk =   0.0132450
        k(  104) = (   0.5000000   0.3583333   0.6416667), wk =   0.0132450
        k(  105) = (   0.5000000   0.3666667   0.6333333), wk =   0.0132450
        k(  106) = (   0.5000000   0.3750000   0.6250000), wk =   0.0132450
        k(  107) = (   0.5000000   0.3833333   0.6166667), wk =   0.0132450
        k(  108) = (   0.5000000   0.3916667   0.6083333), wk =   0.0132450
        k(  109) = (   0.5000000   0.4000000   0.6000000), wk =   0.0132450
        k(  110) = (   0.5000000   0.4083333   0.5916667), wk =   0.0132450
        k(  111) = (   0.5000000   0.4166667   0.5833333), wk =   0.0132450
        k(  112) = (   0.5000000   0.4250000   0.5750000), wk =   0.0132450
        k(  113) = (   0.5000000   0.4333333   0.5666667), wk =   0.0132450
        k(  114) = (   0.5000000   0.4416667   0.5583333), wk =   0.0132450
        k(  115) = (   0.5000000   0.4500000   0.5500000), wk =   0.0132450
        k(  116) = (   0.5000000   0.4583333   0.5416667), wk =   0.0132450
        k(  117) = (   0.5000000   0.4666667   0.5333333), wk =   0.0132450
        k(  118) = (   0.5000000   0.4750000   0.5250000), wk =   0.0132450
        k(  119) = (   0.5000000   0.4833333   0.5166667), wk =   0.0132450
        k(  120) = (   0.5000000   0.4916667   0.5083333), wk =   0.0132450
        k(  121) = (   0.5000000   0.5000000   0.5000000), wk =   0.0132450
        k(  122) = (   0.4833333   0.4833333   0.4833333), wk =   0.0132450
        k(  123) = (   0.4666667   0.4666667   0.4666667), wk =   0.0132450
        k(  124) = (   0.4500000   0.4500000   0.4500000), wk =   0.0132450
        k(  125) = (   0.4333333   0.4333333   0.4333333), wk =   0.0132450
        k(  126) = (   0.4166667   0.4166667   0.4166667), wk =   0.0132450
        k(  127) = (   0.4000000   0.4000000   0.4000000), wk =   0.0132450
        k(  128) = (   0.3833333   0.3833333   0.3833333), wk =   0.0132450
        k(  129) = (   0.3666667   0.3666667   0.3666667), wk =   0.0132450
        k(  130) = (   0.3500000   0.3500000   0.3500000), wk =   0.0132450
        k(  131) = (   0.3333333   0.3333333   0.3333333), wk =   0.0132450
        k(  132) = (   0.3166667   0.3166667   0.3166667), wk =   0.0132450
        k(  133) = (   0.3000000   0.3000000   0.3000000), wk =   0.0132450
        k(  134) = (   0.2833333   0.2833333   0.2833333), wk =   0.0132450
        k(  135) = (   0.2666667   0.2666667   0.2666667), wk =   0.0132450
        k(  136) = (   0.2500000   0.2500000   0.2500000), wk =   0.0132450
        k(  137) = (   0.2333333   0.2333333   0.2333333), wk =   0.0132450
        k(  138) = (   0.2166667   0.2166667   0.2166667), wk =   0.0132450
        k(  139) = (   0.2000000   0.2000000   0.2000000), wk =   0.0132450
        k(  140) = (   0.1833333   0.1833333   0.1833333), wk =   0.0132450
        k(  141) = (   0.1666667   0.1666667   0.1666667), wk =   0.0132450
        k(  142) = (   0.1500000   0.1500000   0.1500000), wk =   0.0132450
        k(  143) = (   0.1333333   0.1333333   0.1333333), wk =   0.0132450
        k(  144) = (   0.1166667   0.1166667   0.1166667), wk =   0.0132450
        k(  145) = (   0.1000000   0.1000000   0.1000000), wk =   0.0132450
        k(  146) = (   0.0833333   0.0833333   0.0833333), wk =   0.0132450
        k(  147) = (   0.0666667   0.0666667   0.0666667), wk =   0.0132450
        k(  148) = (   0.0500000   0.0500000   0.0500000), wk =   0.0132450
        k(  149) = (   0.0333333   0.0333333   0.0333333), wk =   0.0132450
        k(  150) = (   0.0166667   0.0166667   0.0166667), wk =   0.0132450
        k(  151) = (   0.0000000   0.0000000   0.0000000), wk =   0.0132450

     Dense  grid:     6975 G-vectors     FFT dimensions: (  32,  32,  32)

     Dynamical RAM for                 wfc:       0.13 MB

     Dynamical RAM for     wfc (w. buffer):       0.13 MB

     Dynamical RAM for           str. fact:       0.11 MB

     Dynamical RAM for           local pot:       0.00 MB

     Dynamical RAM for          nlocal pot:       0.11 MB

     Dynamical RAM for                qrad:       0.13 MB

     Dynamical RAM for          rho,v,vnew:       1.07 MB

     Dynamical RAM for           G-vectors:       0.45 MB

     Dynamical RAM for          h,s,v(r/c):       0.07 MB

     Dynamical RAM for          <psi|beta>:       0.00 MB

     Dynamical RAM for                 psi:       0.54 MB

     Dynamical RAM for                hpsi:       0.54 MB

     Dynamical RAM for      wfcinit/wfcrot:       0.27 MB

     Estimated static dynamical RAM per process >       3.46 MB

     Estimated max dynamical RAM per process >       4.61 MB

     The potential is recalculated from file :
     /home/modeler/Lab2/test/pwscf.save/charge-density

     Starting wfcs are    8 randomized atomic wfcs +    2 random wfcs

     Band Structure Calculation
     Davidson diagonalization with overlap

     Computing kpt #:     1
     total cpu time spent up to now is        0.3 secs

     Computing kpt #:     2
     total cpu time spent up to now is        0.4 secs

     Computing kpt #:     3
     total cpu time spent up to now is        0.4 secs

     Computing kpt #:     4
     total cpu time spent up to now is        0.5 secs

     Computing kpt #:     5
     total cpu time spent up to now is        0.6 secs

     Computing kpt #:     6
     total cpu time spent up to now is        0.7 secs

     Computing kpt #:     7
     total cpu time spent up to now is        0.8 secs

     Computing kpt #:     8
     total cpu time spent up to now is        0.8 secs

     Computing kpt #:     9
     total cpu time spent up to now is        0.9 secs

     Computing kpt #:    10
     total cpu time spent up to now is        1.0 secs

     Computing kpt #:    11
     total cpu time spent up to now is        1.1 secs

     Computing kpt #:    12
     total cpu time spent up to now is        1.2 secs

     Computing kpt #:    13
     total cpu time spent up to now is        1.3 secs

     Computing kpt #:    14
     total cpu time spent up to now is        1.3 secs

     Computing kpt #:    15
     total cpu time spent up to now is        1.4 secs

     Computing kpt #:    16
     total cpu time spent up to now is        1.5 secs

     Computing kpt #:    17
     total cpu time spent up to now is        1.6 secs

     Computing kpt #:    18
     total cpu time spent up to now is        1.7 secs

     Computing kpt #:    19
     total cpu time spent up to now is        1.8 secs

     Computing kpt #:    20
     total cpu time spent up to now is        1.8 secs

     Computing kpt #:    21
     total cpu time spent up to now is        1.9 secs

     Computing kpt #:    22
     total cpu time spent up to now is        2.0 secs

     Computing kpt #:    23
     total cpu time spent up to now is        2.1 secs

     Computing kpt #:    24
     total cpu time spent up to now is        2.2 secs

     Computing kpt #:    25
     total cpu time spent up to now is        2.2 secs

     Computing kpt #:    26
     total cpu time spent up to now is        2.3 secs

     Computing kpt #:    27
     total cpu time spent up to now is        2.4 secs

     Computing kpt #:    28
     total cpu time spent up to now is        2.5 secs

     Computing kpt #:    29
     total cpu time spent up to now is        2.6 secs

     Computing kpt #:    30
     total cpu time spent up to now is        2.7 secs

     Computing kpt #:    31
     total cpu time spent up to now is        2.7 secs

     Computing kpt #:    32
     total cpu time spent up to now is        2.8 secs

     Computing kpt #:    33
     total cpu time spent up to now is        2.9 secs

     Computing kpt #:    34
     total cpu time spent up to now is        3.0 secs

     Computing kpt #:    35
     total cpu time spent up to now is        3.1 secs

     Computing kpt #:    36
     total cpu time spent up to now is        3.2 secs

     Computing kpt #:    37
     total cpu time spent up to now is        3.2 secs

     Computing kpt #:    38
     total cpu time spent up to now is        3.3 secs

     Computing kpt #:    39
     total cpu time spent up to now is        3.4 secs

     Computing kpt #:    40
     total cpu time spent up to now is        3.5 secs

     Computing kpt #:    41
     total cpu time spent up to now is        3.5 secs

     Computing kpt #:    42
     total cpu time spent up to now is        3.6 secs

     Computing kpt #:    43
     total cpu time spent up to now is        3.7 secs

     Computing kpt #:    44
     total cpu time spent up to now is        3.8 secs

     Computing kpt #:    45
     total cpu time spent up to now is        3.9 secs

     Computing kpt #:    46
     total cpu time spent up to now is        3.9 secs

     Computing kpt #:    47
     total cpu time spent up to now is        4.0 secs

     Computing kpt #:    48
     total cpu time spent up to now is        4.1 secs

     Computing kpt #:    49
     total cpu time spent up to now is        4.2 secs

     Computing kpt #:    50
     total cpu time spent up to now is        4.3 secs

     Computing kpt #:    51
     total cpu time spent up to now is        4.4 secs

     Computing kpt #:    52
     total cpu time spent up to now is        4.5 secs

     Computing kpt #:    53
     total cpu time spent up to now is        4.6 secs

     Computing kpt #:    54
     total cpu time spent up to now is        4.7 secs

     Computing kpt #:    55
     total cpu time spent up to now is        4.8 secs

     Computing kpt #:    56
     total cpu time spent up to now is        4.8 secs

     Computing kpt #:    57
     total cpu time spent up to now is        4.9 secs

     Computing kpt #:    58
     total cpu time spent up to now is        5.0 secs

     Computing kpt #:    59
     total cpu time spent up to now is        5.1 secs

     Computing kpt #:    60
     total cpu time spent up to now is        5.2 secs

     Computing kpt #:    61
     total cpu time spent up to now is        5.2 secs

     Computing kpt #:    62
     total cpu time spent up to now is        5.3 secs

     Computing kpt #:    63
     total cpu time spent up to now is        5.4 secs

     Computing kpt #:    64
     total cpu time spent up to now is        5.5 secs

     Computing kpt #:    65
     total cpu time spent up to now is        5.5 secs

     Computing kpt #:    66
     total cpu time spent up to now is        5.6 secs

     Computing kpt #:    67
     total cpu time spent up to now is        5.7 secs

     Computing kpt #:    68
     total cpu time spent up to now is        5.8 secs

     Computing kpt #:    69
     total cpu time spent up to now is        5.8 secs

     Computing kpt #:    70
     total cpu time spent up to now is        5.9 secs

     Computing kpt #:    71
     total cpu time spent up to now is        6.0 secs

     Computing kpt #:    72
     total cpu time spent up to now is        6.1 secs

     Computing kpt #:    73
     total cpu time spent up to now is        6.2 secs

     Computing kpt #:    74
     total cpu time spent up to now is        6.3 secs

     Computing kpt #:    75
     total cpu time spent up to now is        6.3 secs

     Computing kpt #:    76
     total cpu time spent up to now is        6.4 secs

     Computing kpt #:    77
     total cpu time spent up to now is        6.5 secs

     Computing kpt #:    78
     total cpu time spent up to now is        6.6 secs

     Computing kpt #:    79
     total cpu time spent up to now is        6.7 secs

     Computing kpt #:    80
     total cpu time spent up to now is        6.7 secs

     Computing kpt #:    81
     total cpu time spent up to now is        6.8 secs

     Computing kpt #:    82
     total cpu time spent up to now is        6.9 secs

     Computing kpt #:    83
     total cpu time spent up to now is        7.0 secs

     Computing kpt #:    84
     total cpu time spent up to now is        7.0 secs

     Computing kpt #:    85
     total cpu time spent up to now is        7.1 secs

     Computing kpt #:    86
     total cpu time spent up to now is        7.2 secs

     Computing kpt #:    87
     total cpu time spent up to now is        7.3 secs

     Computing kpt #:    88
     total cpu time spent up to now is        7.4 secs

     Computing kpt #:    89
     total cpu time spent up to now is        7.4 secs

     Computing kpt #:    90
     total cpu time spent up to now is        7.5 secs

     Computing kpt #:    91
     total cpu time spent up to now is        7.6 secs

     Computing kpt #:    92
     total cpu time spent up to now is        7.6 secs

     Computing kpt #:    93
     total cpu time spent up to now is        7.7 secs

     Computing kpt #:    94
     total cpu time spent up to now is        7.8 secs

     Computing kpt #:    95
     total cpu time spent up to now is        7.9 secs

     Computing kpt #:    96
     total cpu time spent up to now is        8.0 secs

     Computing kpt #:    97
     total cpu time spent up to now is        8.0 secs

     Computing kpt #:    98
     total cpu time spent up to now is        8.1 secs

     Computing kpt #:    99
     total cpu time spent up to now is        8.2 secs

     Computing kpt #:   100
     total cpu time spent up to now is        8.3 secs

     Computing kpt #:   101
     total cpu time spent up to now is        8.4 secs

     Computing kpt #:   102
     total cpu time spent up to now is        8.5 secs

     Computing kpt #:   103
     total cpu time spent up to now is        8.6 secs

     Computing kpt #:   104
     total cpu time spent up to now is        8.6 secs

     Computing kpt #:   105
     total cpu time spent up to now is        8.7 secs

     Computing kpt #:   106
     total cpu time spent up to now is        8.8 secs

     Computing kpt #:   107
     total cpu time spent up to now is        8.9 secs

     Computing kpt #:   108
     total cpu time spent up to now is        9.0 secs

     Computing kpt #:   109
     total cpu time spent up to now is        9.1 secs

     Computing kpt #:   110
     total cpu time spent up to now is        9.2 secs

     Computing kpt #:   111
     total cpu time spent up to now is        9.2 secs

     Computing kpt #:   112
     total cpu time spent up to now is        9.3 secs

     Computing kpt #:   113
     total cpu time spent up to now is        9.4 secs

     Computing kpt #:   114
     total cpu time spent up to now is        9.5 secs

     Computing kpt #:   115
     total cpu time spent up to now is        9.6 secs

     Computing kpt #:   116
     total cpu time spent up to now is        9.6 secs

     Computing kpt #:   117
     total cpu time spent up to now is        9.7 secs

     Computing kpt #:   118
     total cpu time spent up to now is        9.8 secs

     Computing kpt #:   119
     total cpu time spent up to now is        9.9 secs

     Computing kpt #:   120
     total cpu time spent up to now is        9.9 secs

     Computing kpt #:   121
     total cpu time spent up to now is       10.0 secs

     Computing kpt #:   122
     total cpu time spent up to now is       10.1 secs

     Computing kpt #:   123
     total cpu time spent up to now is       10.2 secs

     Computing kpt #:   124
     total cpu time spent up to now is       10.3 secs

     Computing kpt #:   125
     total cpu time spent up to now is       10.3 secs

     Computing kpt #:   126
     total cpu time spent up to now is       10.4 secs

     Computing kpt #:   127
     total cpu time spent up to now is       10.5 secs

     Computing kpt #:   128
     total cpu time spent up to now is       10.6 secs

     Computing kpt #:   129
     total cpu time spent up to now is       10.6 secs

     Computing kpt #:   130
     total cpu time spent up to now is       10.7 secs

     Computing kpt #:   131
     total cpu time spent up to now is       10.8 secs

     Computing kpt #:   132
     total cpu time spent up to now is       10.9 secs

     Computing kpt #:   133
     total cpu time spent up to now is       11.0 secs

     Computing kpt #:   134
     total cpu time spent up to now is       11.1 secs

     Computing kpt #:   135
     total cpu time spent up to now is       11.1 secs

     Computing kpt #:   136
     total cpu time spent up to now is       11.2 secs

     Computing kpt #:   137
     total cpu time spent up to now is       11.3 secs

     Computing kpt #:   138
     total cpu time spent up to now is       11.4 secs

     Computing kpt #:   139
     total cpu time spent up to now is       11.4 secs

     Computing kpt #:   140
     total cpu time spent up to now is       11.5 secs

     Computing kpt #:   141
     total cpu time spent up to now is       11.6 secs

     Computing kpt #:   142
     total cpu time spent up to now is       11.7 secs

     Computing kpt #:   143
     total cpu time spent up to now is       11.8 secs

     Computing kpt #:   144
     total cpu time spent up to now is       11.8 secs

     Computing kpt #:   145
     total cpu time spent up to now is       11.9 secs

     Computing kpt #:   146
     total cpu time spent up to now is       12.0 secs

     Computing kpt #:   147
     total cpu time spent up to now is       12.1 secs

     Computing kpt #:   148
     total cpu time spent up to now is       12.2 secs

     Computing kpt #:   149
     total cpu time spent up to now is       12.2 secs

     Computing kpt #:   150
     total cpu time spent up to now is       12.3 secs

     Computing kpt #:   151
     total cpu time spent up to now is       12.4 secs

     ethr =  1.25E-09,  avg # of iterations = 16.1

     total cpu time spent up to now is       12.4 secs

     End of band structure calculation

          k =-1.0000 0.5000 0.0000 (   876 PWs)   bands (ev):

    -3.6140  -3.6140   1.3486   1.3486   9.4561   9.4561   9.6560   9.6560
    15.7041  15.7041

          k =-0.9667 0.4833 0.0000 (   882 PWs)   bands (ev):

    -3.7624  -3.4657   1.2566   1.4586   9.3165   9.3258   9.5575  10.0458
    15.3880  15.9631

          k =-0.9333 0.4667 0.0000 (   884 PWs)   bands (ev):

    -3.9206  -3.3074   1.1916   1.5774   9.1225   9.1767   9.4798  10.5288
    15.0485  16.1124

          k =-0.9000 0.4500 0.0000 (   880 PWs)   bands (ev):

    -4.0872  -3.1389   1.1536   1.7042   8.9247   9.0424   9.4176  11.0220
    14.7037  16.0971

          k =-0.8667 0.4333 0.0000 (   880 PWs)   bands (ev):

    -4.2606  -2.9603   1.1416   1.8384   8.7363   8.9162   9.3685  11.5136
    14.3669  15.9327

          k =-0.8333 0.4167 0.0000 (   884 PWs)   bands (ev):

    -4.4389  -2.7713   1.1547   1.9792   8.5583   8.7992   9.3313  11.9852
    14.0567  15.6864

          k =-0.8000 0.4000 0.0000 (   882 PWs)   bands (ev):

    -4.6204  -2.5720   1.1913   2.1257   8.3914   8.6917   9.3058  12.3886
    13.8189  15.4058

          k =-0.7667 0.3833 0.0000 (   880 PWs)   bands (ev):

    -4.8033  -2.3623   1.2500   2.2770   8.2359   8.5933   9.2918  12.5960
    13.7766  15.1139

          k =-0.7333 0.3667 0.0000 (   882 PWs)   bands (ev):

    -4.9859  -2.1422   1.3293   2.4320   8.0920   8.5034   9.2897  12.5127
    14.0155  14.8219

          k =-0.7000 0.3500-0.0000 (   875 PWs)   bands (ev):

    -5.1668  -1.9115   1.4278   2.5898   7.9601   8.4208   9.2998  12.2728
    14.3861  14.5358

          k =-0.6667 0.3333 0.0000 (   878 PWs)   bands (ev):

    -5.3447  -1.6704   1.5440   2.7492   7.8401   8.3438   9.3227  11.9834
    14.2587  14.7576

          k =-0.6333 0.3167-0.0000 (   878 PWs)   bands (ev):

    -5.5183  -1.4187   1.6767   2.9092   7.7323   8.2706   9.3587  11.6797
    13.9926  15.0613

          k =-0.6000 0.3000 0.0000 (   874 PWs)   bands (ev):

    -5.6867  -1.1564   1.8246   3.0686   7.6367   8.1989   9.4081  11.3740
    13.7381  15.2525

          k =-0.5667 0.2833 0.0000 (   872 PWs)   bands (ev):

    -5.8490  -0.8836   1.9864   3.2266   7.5535   8.1265   9.4704  11.0712
    13.4946  15.3144

          k =-0.5333 0.2667 0.0000 (   875 PWs)   bands (ev):

    -6.0045  -0.6003   2.1611   3.3821   7.4826   8.0510   9.5440  10.7739
    13.2609  15.2624

          k =-0.5000 0.2500 0.0000 (   880 PWs)   bands (ev):

    -6.1526  -0.3065   2.3473   3.5344   7.4241   7.9702   9.6255  10.4835
    13.0350  15.1263

          k =-0.4667 0.2333 0.0000 (   872 PWs)   bands (ev):

    -6.2927  -0.0022   2.5438   3.6829   7.3780   7.8824   9.7085  10.2009
    12.8164  14.9324

          k =-0.4333 0.2167 0.0000 (   877 PWs)   bands (ev):

    -6.4245   0.3122   2.7493   3.8270   7.3443   7.7862   9.7816   9.9268
    12.6089  14.6985

          k =-0.4000 0.2000 0.0000 (   877 PWs)   bands (ev):

    -6.5475   0.6367   2.9623   3.9665   7.3227   7.6806   9.6616   9.8269
    12.4252  14.4364

          k =-0.3667 0.1833 0.0000 (   883 PWs)   bands (ev):

    -6.6616   0.9711   3.1811   4.1011   7.3130   7.5649   9.4059   9.8195
    12.2893  14.1544

          k =-0.3333 0.1667 0.0000 (   889 PWs)   bands (ev):

    -6.7663   1.3150   3.4040   4.2305   7.3149   7.4388   9.1600   9.7352
    12.2298  13.8592

          k =-0.3000 0.1500-0.0000 (   891 PWs)   bands (ev):

    -6.8616   1.6683   3.6286   4.3546   7.3018   7.3277   8.9245   9.5647
    12.2630  13.5573

          k =-0.2667 0.1333-0.0000 (   893 PWs)   bands (ev):

    -6.9472   2.0302   3.8524   4.4729   7.1529   7.3506   8.7003   9.3210
    12.3843  13.2554

          k =-0.2333 0.1167 0.0000 (   895 PWs)   bands (ev):

    -7.0230   2.4002   4.0721   4.5849   6.9900   7.3823   8.4883   9.0303
    12.5760  12.9605

          k =-0.2000 0.1000 0.0000 (   895 PWs)   bands (ev):

    -7.0889   2.7776   4.2839   4.6894   6.8097   7.4208   8.2903   8.7206
    12.6800  12.8187

          k =-0.1667 0.0833-0.0000 (   893 PWs)   bands (ev):

    -7.1448   3.1611   4.4830   4.7852   6.6064   7.4638   8.1086   8.4174
    12.4218  13.0960

          k =-0.1333 0.0667 0.0000 (   891 PWs)   bands (ev):

    -7.1906   3.5493   4.6634   4.8699   6.3733   7.5078   7.9468   8.1430
    12.1941  13.3932

          k =-0.1000 0.0500 0.0000 (   889 PWs)   bands (ev):

    -7.2263   3.9401   4.8179   4.9410   6.1049   7.5490   7.8098   7.9158
    12.0052  13.6945

          k =-0.0667 0.0333-0.0000 (   887 PWs)   bands (ev):

    -7.2518   4.3305   4.9378   4.9951   5.8002   7.5829   7.7040   7.7485
    11.8631  13.9764

          k =-0.0333 0.0167-0.0000 (   893 PWs)   bands (ev):

    -7.2672   4.7156   5.0145   5.0293   5.4646   7.6054   7.6365   7.6471
    11.7745  14.1963

          k = 0.0000 0.0000 0.0000 (   893 PWs)   bands (ev):

    -7.2723   5.0410   5.0410   5.0410   5.1553   7.6132   7.6132   7.6132
    11.7445  14.2846

          k =-0.0333 0.0000 0.0000 (   893 PWs)   bands (ev):

    -7.2682   4.7618   5.0198   5.0198   5.4336   7.5986   7.6401   7.6401
    11.7686  14.2009

          k =-0.0667 0.0000 0.0000 (   893 PWs)   bands (ev):

    -7.2559   4.4329   4.9590   4.9590   5.7597   7.5560   7.7181   7.7181
    11.8396  13.9865

          k =-0.1000 0.0000 0.0000 (   885 PWs)   bands (ev):

    -7.2355   4.1033   4.8651   4.8651   6.0837   7.4883   7.8405   7.8405
    11.9547  13.7024

          k =-0.1333 0.0000 0.0000 (   889 PWs)   bands (ev):

    -7.2069   3.7744   4.7464   4.7464   6.4022   7.3998   7.9992   7.9992
    12.1092  13.3896

          k =-0.1667 0.0000 0.0000 (   889 PWs)   bands (ev):

    -7.1701   3.4472   4.6103   4.6103   6.7118   7.2952   8.1864   8.1864
    12.2984  13.0719

          k =-0.2000 0.0000 0.0000 (   889 PWs)   bands (ev):

    -7.1252   3.1220   4.4632   4.4632   7.0083   7.1790   8.3957   8.3957
    12.5172  12.7645

          k =-0.2333 0.0000 0.0000 (   889 PWs)   bands (ev):

    -7.0721   2.7990   4.3099   4.3099   7.0555   7.2860   8.6222   8.6222
    12.4796  12.7613

          k =-0.2667 0.0000 0.0000 (   889 PWs)   bands (ev):

    -7.0109   2.4784   4.1539   4.1539   6.9279   7.5372   8.8622   8.8622
    12.2287  13.0267

          k =-0.3000 0.0000 0.0000 (   889 PWs)   bands (ev):

    -6.9416   2.1604   3.9978   3.9978   6.7991   7.7521   9.1128   9.1128
    12.0240  13.3098

          k =-0.3333 0.0000 0.0000 (   877 PWs)   bands (ev):

    -6.8642   1.8452   3.8435   3.8435   6.6716   7.9197   9.3720   9.3720
    11.8783  13.6077

          k =-0.3667 0.0000 0.0000 (   877 PWs)   bands (ev):

    -6.7788   1.5327   3.6926   3.6926   6.5471   8.0288   9.6381   9.6381
    11.8034  13.9174

          k =-0.4000 0.0000 0.0000 (   885 PWs)   bands (ev):

    -6.6853   1.2231   3.5460   3.5460   6.4272   8.0735   9.9097   9.9097
    11.8059  14.2361

          k =-0.4333 0.0000 0.0000 (   877 PWs)   bands (ev):

    -6.5838   0.9165   3.4048   3.4048   6.3131   8.0549  10.1858  10.1858
    11.8850  14.5611

          k =-0.4667 0.0000 0.0000 (   881 PWs)   bands (ev):

    -6.4744   0.6131   3.2695   3.2695   6.2057   7.9816  10.4655  10.4655
    12.0319  14.8895

          k =-0.5000 0.0000 0.0000 (   881 PWs)   bands (ev):

    -6.3571   0.3129   3.1408   3.1408   6.1059   7.8666  10.7481  10.7481
    12.2335  15.2177

          k =-0.5333 0.0000 0.0000 (   881 PWs)   bands (ev):

    -6.2319   0.0160   3.0190   3.0190   6.0144   7.7230  11.0327  11.0327
    12.4764  15.5422

          k =-0.5667 0.0000 0.0000 (   869 PWs)   bands (ev):

    -6.0988  -0.2774   2.9045   2.9045   5.9318   7.5617  11.3188  11.3188
    12.7490  15.7355

          k =-0.6000 0.0000 0.0000 (   866 PWs)   bands (ev):

    -5.9580  -0.5673   2.7975   2.7975   5.8585   7.3914  11.6058  11.6058
    13.0421  15.9111

          k =-0.6333 0.0000 0.0000 (   866 PWs)   bands (ev):

    -5.8095  -0.8534   2.6985   2.6985   5.7949   7.2182  11.8927  11.8927
    13.3486  16.0967

          k =-0.6667 0.0000 0.0000 (   866 PWs)   bands (ev):

    -5.6535  -1.1355   2.6075   2.6075   5.7414   7.0466  12.1788  12.1788
    13.6633  16.2924

          k =-0.7000 0.0000 0.0000 (   866 PWs)   bands (ev):

    -5.4899  -1.4136   2.5247   2.5247   5.6984   6.8798  12.4628  12.4628
    13.9822  16.4980

          k =-0.7333 0.0000 0.0000 (   870 PWs)   bands (ev):

    -5.3189  -1.6874   2.4503   2.4503   5.6660   6.7200  12.7433  12.7433
    14.3019  16.7137

          k =-0.7667 0.0000 0.0000 (   882 PWs)   bands (ev):

    -5.1406  -1.9567   2.3843   2.3843   5.6446   6.5689  13.0181  13.0181
    14.6197  16.9393

          k =-0.8000 0.0000 0.0000 (   886 PWs)   bands (ev):

    -4.9550  -2.2213   2.3270   2.3270   5.6343   6.4276  13.2840  13.2840
    14.9334  17.1749

          k =-0.8333 0.0000 0.0000 (   886 PWs)   bands (ev):

    -4.7624  -2.4809   2.2784   2.2784   5.6354   6.2969  13.5365  13.5365
    15.2407  17.2795

          k =-0.8667 0.0000 0.0000 (   878 PWs)   bands (ev):

    -4.5628  -2.7354   2.2385   2.2385   5.6481   6.1774  13.7691  13.7691
    15.5395  17.2308

          k =-0.9000 0.0000 0.0000 (   878 PWs)   bands (ev):

    -4.3565  -2.9846   2.2074   2.2074   5.6724   6.0694  13.9724  13.9724
    15.8272  17.1315

          k =-0.9333 0.0000 0.0000 (   870 PWs)   bands (ev):

    -4.1434  -3.2282   2.1852   2.1852   5.7086   5.9732  14.1340  14.1340
    16.1015  16.9880

          k =-0.9667 0.0000 0.0000 (   870 PWs)   bands (ev):

    -3.9239  -3.4661   2.1719   2.1719   5.7568   5.8890  14.2396  14.2396
    16.3589  16.8073

          k =-1.0000 0.0000 0.0000 (   846 PWs)   bands (ev):

    -3.6980  -3.6980   2.1674   2.1674   5.8169   5.8169  14.2765  14.2765
    16.5958  16.5958

          k =-1.0000 0.0167 0.0000 (   860 PWs)   bands (ev):

    -3.6978  -3.6978   2.1644   2.1644   5.8231   5.8231  14.2684  14.2684
    16.5787  16.5787

          k =-1.0000 0.0333 0.0000 (   868 PWs)   bands (ev):

    -3.6971  -3.6971   2.1554   2.1554   5.8418   5.8418  14.2439  14.2439
    16.5314  16.5314

          k =-1.0000 0.0500 0.0000 (   868 PWs)   bands (ev):

    -3.6961  -3.6961   2.1407   2.1407   5.8726   5.8726  14.2028  14.2028
    16.4628  16.4628

          k =-1.0000 0.0667 0.0000 (   870 PWs)   bands (ev):

    -3.6946  -3.6946   2.1205   2.1205   5.9152   5.9152  14.1448  14.1448
    16.3823  16.3823

          k =-1.0000 0.0833 0.0000 (   874 PWs)   bands (ev):

    -3.6927  -3.6927   2.0955   2.0955   5.9692   5.9692  14.0697  14.0697
    16.2980  16.2980

          k =-1.0000 0.1000 0.0000 (   874 PWs)   bands (ev):

    -3.6903  -3.6903   2.0661   2.0661   6.0340   6.0340  13.9777  13.9777
    16.2155  16.2155

          k =-1.0000 0.1167 0.0000 (   882 PWs)   bands (ev):

    -3.6877  -3.6877   2.0330   2.0330   6.1090   6.1090  13.8690  13.8690
    16.1384  16.1384

          k =-1.0000 0.1333 0.0000 (   882 PWs)   bands (ev):

    -3.6847  -3.6847   1.9967   1.9967   6.1936   6.1936  13.7447  13.7447
    16.0687  16.0687

          k =-1.0000 0.1500 0.0000 (   882 PWs)   bands (ev):

    -3.6814  -3.6814   1.9579   1.9579   6.2873   6.2873  13.6061  13.6061
    16.0074  16.0074

          k =-1.0000 0.1667 0.0000 (   878 PWs)   bands (ev):

    -3.6778  -3.6778   1.9172   1.9172   6.3893   6.3893  13.4546  13.4546
    15.9545  15.9545

          k =-1.0000 0.1833 0.0000 (   878 PWs)   bands (ev):

    -3.6739  -3.6739   1.8752   1.8752   6.4991   6.4991  13.2920  13.2920
    15.9094  15.9094

          k =-1.0000 0.2000 0.0000 (   880 PWs)   bands (ev):

    -3.6699  -3.6699   1.8325   1.8325   6.6161   6.6161  13.1200  13.1200
    15.8714  15.8714

          k =-1.0000 0.2167 0.0000 (   876 PWs)   bands (ev):

    -3.6657  -3.6657   1.7896   1.7896   6.7400   6.7400  12.9402  12.9402
    15.8397  15.8397

          k =-1.0000 0.2333 0.0000 (   876 PWs)   bands (ev):

    -3.6614  -3.6614   1.7469   1.7469   6.8701   6.8701  12.7540  12.7540
    15.8134  15.8134

          k =-1.0000 0.2500 0.0000 (   876 PWs)   bands (ev):

    -3.6570  -3.6570   1.7049   1.7049   7.0061   7.0061  12.5627  12.5627
    15.7917  15.7917

          k =-1.0000 0.2667 0.0000 (   880 PWs)   bands (ev):

    -3.6526  -3.6526   1.6640   1.6640   7.1475   7.1475  12.3674  12.3674
    15.7738  15.7738

          k =-1.0000 0.2833 0.0000 (   880 PWs)   bands (ev):

    -3.6482  -3.6482   1.6245   1.6245   7.2941   7.2941  12.1690  12.1690
    15.7591  15.7591

          k =-1.0000 0.3000 0.0000 (   880 PWs)   bands (ev):

    -3.6439  -3.6439   1.5868   1.5868   7.4455   7.4455  11.9685  11.9685
    15.7471  15.7471

          k =-1.0000 0.3167 0.0000 (   880 PWs)   bands (ev):

    -3.6397  -3.6397   1.5511   1.5511   7.6014   7.6014  11.7663  11.7663
    15.7374  15.7374

          k =-1.0000 0.3333 0.0000 (   878 PWs)   bands (ev):

    -3.6357  -3.6357   1.5177   1.5177   7.7615   7.7615  11.5632  11.5632
    15.7296  15.7296

          k =-1.0000 0.3500 0.0000 (   878 PWs)   bands (ev):

    -3.6320  -3.6320   1.4869   1.4869   7.9256   7.9256  11.3597  11.3597
    15.7233  15.7233

          k =-1.0000 0.3667 0.0000 (   878 PWs)   bands (ev):

    -3.6284  -3.6284   1.4588   1.4588   8.0935   8.0935  11.1562  11.1562
    15.7182  15.7182

          k =-1.0000 0.3833 0.0000 (   880 PWs)   bands (ev):

    -3.6252  -3.6252   1.4336   1.4336   8.2648   8.2648  10.9530  10.9530
    15.7143  15.7143

          k =-1.0000 0.4000 0.0000 (   880 PWs)   bands (ev):

    -3.6224  -3.6224   1.4114   1.4114   8.4394   8.4394  10.7507  10.7507
    15.7111  15.7111

          k =-1.0000 0.4167 0.0000 (   880 PWs)   bands (ev):

    -3.6199  -3.6199   1.3924   1.3924   8.6169   8.6169  10.5495  10.5495
    15.7088  15.7088

          k =-1.0000 0.4333 0.0000 (   880 PWs)   bands (ev):

    -3.6178  -3.6178   1.3768   1.3768   8.7970   8.7970  10.3499  10.3499
    15.7070  15.7070

          k =-1.0000 0.4500 0.0000 (   880 PWs)   bands (ev):

    -3.6161  -3.6161   1.3645   1.3645   8.9792   8.9792  10.1525  10.1525
    15.7057  15.7057

          k =-1.0000 0.4667 0.0000 (   880 PWs)   bands (ev):

    -3.6149  -3.6149   1.3557   1.3557   9.1620   9.1620   9.9589   9.9589
    15.7048  15.7048

          k =-1.0000 0.4833 0.0000 (   876 PWs)   bands (ev):

    -3.6142  -3.6142   1.3504   1.3504   9.3399   9.3399   9.7744   9.7744
    15.7043  15.7043

          k =-1.0000 0.5000 0.0000 (   876 PWs)   bands (ev):

    -3.6140  -3.6140   1.3486   1.3486   9.4561   9.4561   9.6560   9.6560
    15.7041  15.7041

          k =-0.9833 0.5000 0.0167 (   878 PWs)   bands (ev):

    -3.7151  -3.5128   1.2778   1.4267   9.3312   9.4572   9.6773   9.7673
    15.4816  15.8981

          k =-0.9667 0.5000 0.0333 (   878 PWs)   bands (ev):

    -3.8157  -3.4121   1.2149   1.5112   9.1920   9.3531   9.8127   9.9011
    15.2330  16.0635

          k =-0.9500 0.5000 0.0500 (   880 PWs)   bands (ev):

    -3.9151  -3.3127   1.1609   1.6014   9.0527   9.2415   9.9648  10.0430
    14.9620  16.2017

          k =-0.9333 0.5000 0.0667 (   882 PWs)   bands (ev):

    -4.0131  -3.2153   1.1166   1.6966   8.9152   9.1335  10.1226  10.1902
    14.6736  16.3155

          k =-0.9167 0.5000 0.0833 (   880 PWs)   bands (ev):

    -4.1091  -3.1207   1.0829   1.7961   8.7800   9.0313  10.2842  10.3414
    14.3730  16.4077

          k =-0.9000 0.5000 0.1000 (   880 PWs)   bands (ev):

    -4.2029  -3.0296   1.0607   1.8992   8.6473   8.9355  10.4489  10.4951
    14.0654  16.4811

          k =-0.8833 0.5000 0.1167 (   884 PWs)   bands (ev):

    -4.2943  -2.9429   1.0510   2.0053   8.5169   8.8466  10.6161  10.6496
    13.7562  16.5380

          k =-0.8667 0.5000 0.1333 (   882 PWs)   bands (ev):

    -4.3828  -2.8614   1.0545   2.1138   8.3886   8.7651  10.7854  10.8020
    13.4512  16.5799

          k =-0.8500 0.5000 0.1500 (   880 PWs)   bands (ev):

    -4.4684  -2.7858   1.0721   2.2238   8.2621   8.6912  10.9470  10.9563
    13.1580  16.6070

          k =-0.8333 0.5000 0.1667 (   874 PWs)   bands (ev):

    -4.5508  -2.7167   1.1043   2.3349   8.1369   8.6252  11.0752  11.1283
    12.8885  16.6178

          k =-0.8167 0.5000 0.1833 (   878 PWs)   bands (ev):

    -4.6299  -2.6546   1.1515   2.4462   8.0126   8.5674  11.1685  11.3005
    12.6624  16.6063

          k =-0.8000 0.5000 0.2000 (   876 PWs)   bands (ev):

    -4.7055  -2.5997   1.2140   2.5571   7.8886   8.5180  11.1971  11.4721
    12.5114  16.5577

          k =-0.7833 0.5000 0.2167 (   878 PWs)   bands (ev):

    -4.7775  -2.5521   1.2918   2.6668   7.7640   8.4773  11.1333  11.6416
    12.4649  16.4473

          k =-0.7667 0.5000 0.2333 (   878 PWs)   bands (ev):

    -4.8458  -2.5116   1.3845   2.7746   7.6381   8.4455  10.9828  11.8075
    12.5187  16.2709

          k =-0.7500 0.5000 0.2500 (   882 PWs)   bands (ev):

    -4.9104  -2.4779   1.4917   2.8797   7.5098   8.4226  10.7790  11.9675
    12.6410  16.0606

          k =-0.7333 0.5000 0.2667 (   874 PWs)   bands (ev):

    -4.9710  -2.4505   1.6127   2.9816   7.3780   8.4088  10.5517  12.1187
    12.8037  15.8464

          k =-0.7167 0.5000 0.2833 (   874 PWs)   bands (ev):

    -5.0277  -2.4288   1.7466   3.0793   7.2416   8.4039  10.3190  12.2570
    12.9906  15.6455

          k =-0.7000 0.5000 0.3000 (   876 PWs)   bands (ev):

    -5.0804  -2.4121   1.8923   3.1722   7.0992   8.4077  10.0910  12.3775
    13.1929  15.4691

          k =-0.6833 0.5000 0.3167 (   870 PWs)   bands (ev):

    -5.1290  -2.3996   2.0489   3.2598   6.9498   8.4199   9.8740  12.4745
    13.4059  15.3265

          k =-0.6667 0.5000 0.3333 (   876 PWs)   bands (ev):

    -5.1736  -2.3908   2.2150   3.3413   6.7926   8.4398   9.6721  12.5420
    13.6266  15.2259

          k =-0.6500 0.5000 0.3500 (   870 PWs)   bands (ev):

    -5.2140  -2.3848   2.3891   3.4163   6.6274   8.4666   9.4881  12.5761
    13.8527  15.1734

          k =-0.6333 0.5000 0.3667 (   870 PWs)   bands (ev):

    -5.2502  -2.3811   2.5697   3.4843   6.4544   8.4991   9.3237  12.5762
    14.0822  15.1709

          k =-0.6167 0.5000 0.3833 (   874 PWs)   bands (ev):

    -5.2822  -2.3792   2.7549   3.5449   6.2748   8.5357   9.1799  12.5466
    14.3130  15.2159

          k =-0.6000 0.5000 0.4000 (   876 PWs)   bands (ev):

    -5.3100  -2.3785   2.9420   3.5978   6.0909   8.5747   9.0570  12.4952
    14.5422  15.3021

          k =-0.5833 0.5000 0.4167 (   876 PWs)   bands (ev):

    -5.3335  -2.3785   3.1279   3.6429   5.9063   8.6139   8.9546  12.4318
    14.7655  15.4213

          k =-0.5667 0.5000 0.4333 (   874 PWs)   bands (ev):

    -5.3528  -2.3791   3.3075   3.6799   5.7265   8.6508   8.8723  12.3658
    14.9761  15.5651

          k =-0.5500 0.5000 0.4500 (   874 PWs)   bands (ev):

    -5.3678  -2.3798   3.4733   3.7087   5.5597   8.6831   8.8093  12.3056
    15.1634  15.7258

          k =-0.5333 0.5000 0.4667 (   876 PWs)   bands (ev):

    -5.3786  -2.3804   3.6134   3.7294   5.4183   8.7082   8.7648  12.2578
    15.3122  15.8960

          k =-0.5167 0.5000 0.4833 (   880 PWs)   bands (ev):

    -5.3850  -2.3809   3.7105   3.7418   5.3202   8.7242   8.7384  12.2271
    15.4072  16.0679

          k =-0.5000 0.5000 0.5000 (   886 PWs)   bands (ev):

    -5.3872  -2.3810   3.7459   3.7459   5.2844   8.7297   8.7297  12.2165
    15.4394  16.2207

          k =-0.4833 0.4833 0.4833 (   874 PWs)   bands (ev):

    -5.3984  -2.3628   3.7481   3.7481   5.2869   8.7307   8.7307  12.2193
    15.3319  16.1167

          k =-0.4667 0.4667 0.4667 (   874 PWs)   bands (ev):

    -5.4314  -2.3089   3.7548   3.7548   5.2944   8.7339   8.7339  12.2273
    15.0954  15.8857

          k =-0.4500 0.4500 0.4500 (   874 PWs)   bands (ev):

    -5.4837  -2.2216   3.7660   3.7660   5.3069   8.7388   8.7388  12.2399
    14.8146  15.6145

          k =-0.4333 0.4333 0.4333 (   878 PWs)   bands (ev):

    -5.5522  -2.1042   3.7815   3.7815   5.3242   8.7452   8.7452  12.2559
    14.5195  15.3357

          k =-0.4167 0.4167 0.4167 (   878 PWs)   bands (ev):

    -5.6334  -1.9603   3.8015   3.8015   5.3465   8.7524   8.7524  12.2728
    14.2223  15.0610

          k =-0.4000 0.4000 0.4000 (   869 PWs)   bands (ev):

    -5.7238  -1.7933   3.8259   3.8259   5.3737   8.7597   8.7597  12.2863
    13.9317  14.7961

          k =-0.3833 0.3833 0.3833 (   872 PWs)   bands (ev):

    -5.8206  -1.6063   3.8546   3.8546   5.4055   8.7662   8.7662  12.2885
    13.6577  14.5442

          k =-0.3667 0.3667 0.3667 (   878 PWs)   bands (ev):

    -5.9210  -1.4019   3.8875   3.8875   5.4420   8.7708   8.7708  12.2647
    13.4159  14.3077

          k =-0.3500 0.3500 0.3500 (   884 PWs)   bands (ev):

    -6.0233  -1.1822   3.9247   3.9247   5.4829   8.7722   8.7722  12.1920
    13.2293  14.0889

          k =-0.3333 0.3333 0.3333 (   878 PWs)   bands (ev):

    -6.1256  -0.9489   3.9660   3.9660   5.5282   8.7690   8.7690  12.0504
    13.1180  13.8896

          k =-0.3167 0.3167 0.3167 (   878 PWs)   bands (ev):

    -6.2267  -0.7035   4.0113   4.0113   5.5776   8.7598   8.7598  11.8431
    13.0777  13.7117

          k =-0.3000 0.3000 0.3000 (   887 PWs)   bands (ev):

    -6.3257  -0.4473   4.0605   4.0605   5.6307   8.7431   8.7431  11.5916
    13.0853  13.5571

          k =-0.2833 0.2833 0.2833 (   887 PWs)   bands (ev):

    -6.4216  -0.1812   4.1134   4.1134   5.6872   8.7178   8.7178  11.3154
    13.1195  13.4272

          k =-0.2667 0.2667 0.2667 (   887 PWs)   bands (ev):

    -6.5139   0.0940   4.1697   4.1697   5.7467   8.6827   8.6827  11.0261
    13.1649  13.3233

          k =-0.2500 0.2500 0.2500 (   890 PWs)   bands (ev):

    -6.6020   0.3775   4.2294   4.2294   5.8085   8.6372   8.6372  10.7299
    13.2103  13.2464

          k =-0.2333 0.2333 0.2333 (   896 PWs)   bands (ev):

    -6.6856   0.6686   4.2919   4.2919   5.8717   8.5811   8.5811  10.4303
    13.1967  13.1967

          k =-0.2167 0.2167 0.2167 (   887 PWs)   bands (ev):

    -6.7643   0.9667   4.3571   4.3571   5.9355   8.5150   8.5150  10.1298
    13.1742  13.1742

          k =-0.2000 0.2000 0.2000 (   887 PWs)   bands (ev):

    -6.8379   1.2711   4.4243   4.4243   5.9983   8.4397   8.4397   9.8299
    13.1781  13.1781

          k =-0.1833 0.1833 0.1833 (   893 PWs)   bands (ev):

    -6.9062   1.5812   4.4931   4.4931   6.0582   8.3568   8.3568   9.5324
    13.1549  13.2070

          k =-0.1667 0.1667 0.1667 (   899 PWs)   bands (ev):

    -6.9689   1.8963   4.5628   4.5628   6.1125   8.2681   8.2681   9.2393
    13.0347  13.2594

          k =-0.1500 0.1500 0.1500 (   893 PWs)   bands (ev):

    -7.0260   2.2158   4.6326   4.6326   6.1577   8.1759   8.1759   8.9535
    12.8775  13.3331

          k =-0.1333 0.1333 0.1333 (   893 PWs)   bands (ev):

    -7.0773   2.5388   4.7014   4.7014   6.1887   8.0827   8.0827   8.6791
    12.6986  13.4260

          k =-0.1167 0.1167 0.1167 (   893 PWs)   bands (ev):

    -7.1227   2.8646   4.7680   4.7680   6.1983   7.9909   7.9909   8.4221
    12.5130  13.5353

          k =-0.1000 0.1000 0.1000 (   899 PWs)   bands (ev):

    -7.1623   3.1919   4.8311   4.8311   6.1774   7.9034   7.9034   8.1904
    12.3325  13.6579

          k =-0.0833 0.0833 0.0833 (   893 PWs)   bands (ev):

    -7.1958   3.5197   4.8892   4.8892   6.1155   7.8228   7.8228   7.9936
    12.1664  13.7898

          k =-0.0667 0.0667 0.0667 (   887 PWs)   bands (ev):

    -7.2233   3.8465   4.9403   4.9403   6.0039   7.7519   7.7519   7.8395
    12.0217  13.9255

          k =-0.0500 0.0500 0.0500 (   890 PWs)   bands (ev):

    -7.2447   4.1701   4.9826   4.9826   5.8399   7.6934   7.6934   7.7303
    11.9035  14.0571

          k =-0.0333 0.0333 0.0333 (   890 PWs)   bands (ev):

    -7.2600   4.4880   5.0145   5.0145   5.6288   7.6496   7.6496   7.6613
    11.8162  14.1724

          k =-0.0167 0.0167 0.0167 (   893 PWs)   bands (ev):

    -7.2692   4.7954   5.0343   5.0343   5.3815   7.6224   7.6224   7.6246
    11.7626  14.2544

          k = 0.0000 0.0000 0.0000 (   893 PWs)   bands (ev):

    -7.2723   5.0410   5.0410   5.0410   5.1553   7.6132   7.6132   7.6132
    11.7445  14.2846

     Writing output data file pwscf.save/

     init_run     :      0.04s CPU      0.04s WALL (       1 calls)
     electrons    :     11.89s CPU     12.20s WALL (       1 calls)

     Called by init_run:
     wfcinit      :      0.00s CPU      0.00s WALL (       1 calls)
     wfcinit:atom :      0.03s CPU      0.03s WALL (     151 calls)
     wfcinit:wfcr :      0.78s CPU      0.81s WALL (     151 calls)
     potinit      :      0.00s CPU      0.00s WALL (       1 calls)
     hinit0       :      0.03s CPU      0.03s WALL (       1 calls)

     Called by electrons:
     c_bands      :     11.89s CPU     12.20s WALL (       1 calls)
     v_of_rho     :      0.00s CPU      0.00s WALL (       1 calls)
     v_h          :      0.00s CPU      0.00s WALL (       1 calls)
     v_xc         :      0.00s CPU      0.00s WALL (       1 calls)

     Called by c_bands:
     init_us_2    :      0.03s CPU      0.03s WALL (     151 calls)
     cegterg      :     10.99s CPU     11.25s WALL (     161 calls)

     Called by sum_band:

     Called by *egterg:
     h_psi        :      7.34s CPU      7.57s WALL (    2739 calls)
     g_psi        :      0.10s CPU      0.11s WALL (    2427 calls)
     cdiaghg      :      0.98s CPU      0.99s WALL (    2578 calls)
     cegterg:over :      1.44s CPU      1.46s WALL (    2427 calls)
     cegterg:upda :      1.01s CPU      1.03s WALL (    2427 calls)
     cegterg:last :      0.58s CPU      0.59s WALL (     528 calls)

     Called by h_psi:
     h_psi:pot    :      7.23s CPU      7.45s WALL (    2739 calls)
     h_psi:calbec :      0.30s CPU      0.31s WALL (    2739 calls)
     vloc_psi     :      6.65s CPU      6.86s WALL (    2739 calls)
     add_vuspsi   :      0.26s CPU      0.26s WALL (    2739 calls)

     General routines
     calbec       :      0.29s CPU      0.30s WALL (    2739 calls)
     fft          :      0.00s CPU      0.00s WALL (       3 calls)
     fftw         :      4.87s CPU      5.03s WALL (   33106 calls)
     davcio       :      0.02s CPU      0.03s WALL (     302 calls)

     Parallel routines

     PWSCF        :     12.11s CPU     12.47s WALL


   This run was terminated on:  19:41:36   7Oct2020            

=------------------------------------------------------------------------------=
   JOB DONE.
=------------------------------------------------------------------------------=
