
     Program PWSCF v.6.4.1 starts on  7Oct2020 at 19:39:31 

     This program is part of the open-source Quantum ESPRESSO suite
     for quantum simulation of materials; please cite
         "P. Giannozzi et al., J. Phys.:Condens. Matter 21 395502 (2009);
         "P. Giannozzi et al., J. Phys.:Condens. Matter 29 465901 (2017);
          URL http://www.quantum-espresso.org", 
     in publications or presentations arising from this work. More details at
     http://www.quantum-espresso.org/quote

     Parallel version (MPI), running on     1 processors

     MPI processes distributed on     1 nodes
     Waiting for input...
     Reading input from standard input
Warning: card &IONS ignored
Warning: card / ignored
Warning: card &CELL ignored
Warning: card / ignored

     Current dimensions of program PWSCF are:
     Max number of different atomic species (ntypx) = 10
     Max number of k-points (npk) =  40000
     Max angular momentum in pseudopotentials (lmaxx) =  3

     Subspace diagonalization in iterative solution of the eigenvalue problem:
     a serial algorithm will be used


     G-vector sticks info
     --------------------
     sticks:   dense  smooth     PW     G-vecs:    dense   smooth      PW
     Sum         499     499    151                 6975     6975    1243



     bravais-lattice index     =            2
     lattice parameter (alat)  =      10.8171  a.u.
     unit-cell volume          =     316.4269 (a.u.)^3
     number of atoms/cell      =            2
     number of atomic types    =            1
     number of electrons       =         8.00
     number of Kohn-Sham states=           10
     kinetic-energy cutoff     =      30.0000  Ry
     charge density cutoff     =     120.0000  Ry
     convergence threshold     =      1.0E-07
     mixing beta               =       0.5000
     number of iterations used =            8  plain     mixing
     Exchange-correlation      = SLA PZ NOGX NOGC ( 1  1  0  0 0 0)

     celldm(1)=  10.817107  celldm(2)=   0.000000  celldm(3)=   0.000000
     celldm(4)=   0.000000  celldm(5)=   0.000000  celldm(6)=   0.000000

     crystal axes: (cart. coord. in units of alat)
               a(1) = (  -0.500000   0.000000   0.500000 )  
               a(2) = (   0.000000   0.500000   0.500000 )  
               a(3) = (  -0.500000   0.500000   0.000000 )  

     reciprocal axes: (cart. coord. in units 2 pi/alat)
               b(1) = ( -1.000000 -1.000000  1.000000 )  
               b(2) = (  1.000000  1.000000  1.000000 )  
               b(3) = ( -1.000000  1.000000 -1.000000 )  


     PseudoPot. # 1 for Ge read from file:
     /home/modeler/qe_pseudo/Ge.pz-bhs.UPF
     MD5 check sum: 4f8fee77de72fb640d24dcbf01bda005
     Pseudo is Norm-conserving, Zval =  4.0
     Generated by new atomic code, or converted to UPF format
     Using radial grid of  291 points,  2 beta functions with: 
                l(1) =   0
                l(2) =   1

     atomic species   valence    mass     pseudopotential
        Ge             4.00    72.61000     Ge( 1.00)

     48 Sym. Ops., with inversion, found (24 have fractional translation)



   Cartesian axes

     site n.     atom                  positions (alat units)
         1           Ge  tau(   1) = (   0.0000000   0.0000000   0.0000000  )
         2           Ge  tau(   2) = (   0.2500000   0.2500000   0.2500000  )

     number of k points=    29
                       cart. coord. in units 2pi/alat
        k(    1) = (   0.0000000   0.0000000   0.0000000), wk =   0.0039062
        k(    2) = (  -0.1250000   0.1250000  -0.1250000), wk =   0.0312500
        k(    3) = (  -0.2500000   0.2500000  -0.2500000), wk =   0.0312500
        k(    4) = (  -0.3750000   0.3750000  -0.3750000), wk =   0.0312500
        k(    5) = (   0.5000000  -0.5000000   0.5000000), wk =   0.0156250
        k(    6) = (   0.0000000   0.2500000   0.0000000), wk =   0.0234375
        k(    7) = (  -0.1250000   0.3750000  -0.1250000), wk =   0.0937500
        k(    8) = (  -0.2500000   0.5000000  -0.2500000), wk =   0.0937500
        k(    9) = (   0.6250000  -0.3750000   0.6250000), wk =   0.0937500
        k(   10) = (   0.5000000  -0.2500000   0.5000000), wk =   0.0937500
        k(   11) = (   0.3750000  -0.1250000   0.3750000), wk =   0.0937500
        k(   12) = (   0.2500000   0.0000000   0.2500000), wk =   0.0468750
        k(   13) = (   0.0000000   0.5000000   0.0000000), wk =   0.0234375
        k(   14) = (  -0.1250000   0.6250000  -0.1250000), wk =   0.0937500
        k(   15) = (   0.7500000  -0.2500000   0.7500000), wk =   0.0937500
        k(   16) = (   0.6250000  -0.1250000   0.6250000), wk =   0.0937500
        k(   17) = (   0.5000000   0.0000000   0.5000000), wk =   0.0468750
        k(   18) = (   0.0000000   0.7500000   0.0000000), wk =   0.0234375
        k(   19) = (   0.8750000  -0.1250000   0.8750000), wk =   0.0937500
        k(   20) = (   0.7500000   0.0000000   0.7500000), wk =   0.0468750
        k(   21) = (   0.0000000  -1.0000000   0.0000000), wk =   0.0117188
        k(   22) = (  -0.2500000   0.5000000   0.0000000), wk =   0.0937500
        k(   23) = (   0.6250000  -0.3750000   0.8750000), wk =   0.1875000
        k(   24) = (   0.5000000  -0.2500000   0.7500000), wk =   0.0937500
        k(   25) = (   0.7500000  -0.2500000   1.0000000), wk =   0.0937500
        k(   26) = (   0.6250000  -0.1250000   0.8750000), wk =   0.1875000
        k(   27) = (   0.5000000   0.0000000   0.7500000), wk =   0.0937500
        k(   28) = (  -0.2500000  -1.0000000   0.0000000), wk =   0.0468750
        k(   29) = (  -0.5000000  -1.0000000   0.0000000), wk =   0.0234375

     Dense  grid:     6975 G-vectors     FFT dimensions: (  32,  32,  32)

     Estimated max dynamical RAM per process >      10.55 MB

     Initial potential from superposition of free atoms

     starting charge    6.99990, renormalised to    8.00000
     Starting wfcs are    8 randomized atomic wfcs +    2 random wfcs

     total cpu time spent up to now is        1.0 secs

     Self-consistent Calculation

     iteration #  1     ecut=    30.00 Ry     beta= 0.50
     Davidson diagonalization with overlap
     ethr =  1.00E-02,  avg # of iterations =  5.0

     Threshold (ethr) on eigenvalues was too large:
     Diagonalizing with lowered threshold

     Davidson diagonalization with overlap
     ethr =  3.15E-04,  avg # of iterations =  1.4

     total cpu time spent up to now is        2.3 secs

     total energy              =     -16.01256710 Ry
     Harris-Foulkes estimate   =     -16.01688611 Ry
     estimated scf accuracy    <       0.02551720 Ry

     iteration #  2     ecut=    30.00 Ry     beta= 0.50
     Davidson diagonalization with overlap
     ethr =  3.19E-04,  avg # of iterations =  1.0

     total cpu time spent up to now is        2.8 secs

     total energy              =     -16.01154581 Ry
     Harris-Foulkes estimate   =     -16.01276431 Ry
     estimated scf accuracy    <       0.00591169 Ry

     iteration #  3     ecut=    30.00 Ry     beta= 0.50
     Davidson diagonalization with overlap
     ethr =  7.39E-05,  avg # of iterations =  1.1

     total cpu time spent up to now is        3.2 secs

     total energy              =     -16.01162652 Ry
     Harris-Foulkes estimate   =     -16.01163675 Ry
     estimated scf accuracy    <       0.00002150 Ry

     iteration #  4     ecut=    30.00 Ry     beta= 0.50
     Davidson diagonalization with overlap
     ethr =  2.69E-07,  avg # of iterations =  4.4

     total cpu time spent up to now is        3.8 secs

     total energy              =     -16.01163680 Ry
     Harris-Foulkes estimate   =     -16.01163683 Ry
     estimated scf accuracy    <       0.00000024 Ry

     iteration #  5     ecut=    30.00 Ry     beta= 0.50
     Davidson diagonalization with overlap
     ethr =  2.99E-09,  avg # of iterations =  1.9

     total cpu time spent up to now is        4.3 secs

     End of self-consistent calculation

          k = 0.0000 0.0000 0.0000 (   893 PWs)   bands (ev):

    -7.2727   5.0406   5.0406   5.0406   5.1549   7.6130   7.6130   7.6130
    11.7446  14.2843

          k =-0.1250 0.1250-0.1250 (   893 PWs)   bands (ev):

    -7.1011   2.7010   4.7346   4.7346   6.1964   8.0362   8.0362   8.5477
    12.6058  13.4786

          k =-0.2500 0.2500-0.2500 (   890 PWs)   bands (ev):

    -6.6024   0.3771   4.2290   4.2290   5.8082   8.6369   8.6369  10.7296
    13.2104  13.2462

          k =-0.3750 0.3750-0.3750 (   872 PWs)   bands (ev):

    -5.8709  -1.5064   3.8702   3.8702   5.4230   8.7686   8.7686  12.2810
    13.5314  14.4237

          k = 0.5000-0.5000 0.5000 (   886 PWs)   bands (ev):

    -5.3876  -2.3814   3.7455   3.7455   5.2842   8.7295   8.7295  12.2166
    15.4393  16.2205

          k = 0.0000 0.2500 0.0000 (   889 PWs)   bands (ev):

    -7.0429   2.6380   4.2317   4.2317   6.9918   7.4151   8.7404   8.7404
    12.3490  12.8916

          k =-0.1250 0.3750-0.1250 (   879 PWs)   bands (ev):

    -6.6485   0.8760   3.6171   3.7056   6.9975   7.7642   9.5362   9.8521
    12.3408  14.0832

          k =-0.2500 0.5000-0.2500 (   876 PWs)   bands (ev):

    -5.9708  -1.0104   2.9569   3.4120   6.7305   8.3757   9.7029  10.6049
    13.9939  14.2954

          k = 0.6250-0.3750 0.6250 (   877 PWs)   bands (ev):

    -5.2953  -2.2768   2.5146   3.4122   6.5113   8.5679   9.4380  12.1602
    13.9357  15.9547

          k = 0.5000-0.2500 0.5000 (   873 PWs)   bands (ev):

    -5.4802  -1.9675   2.3820   3.6946   6.5380   8.7840   9.1612  12.3543
    13.9296  13.9522

          k = 0.3750-0.1250 0.3750 (   877 PWs)   bands (ev):

    -6.2249  -0.4145   2.6248   4.1890   6.7815   8.7883   8.9607  10.7517
    12.5164  14.0428

          k = 0.2500 0.0000 0.2500 (   887 PWs)   bands (ev):

    -6.8185   1.4186   3.4098   4.6930   6.8914   8.1647   8.2991   9.8162
    12.4781  13.6388

          k = 0.0000 0.5000 0.0000 (   881 PWs)   bands (ev):

    -6.3575   0.3125   3.1404   3.1404   6.1058   7.8664  10.7477  10.7477
    12.2333  15.2177

          k =-0.1250 0.6250-0.1250 (   874 PWs)   bands (ev):

    -5.7563  -1.0055   2.3492   2.8122   6.3488   7.8010  10.7516  11.3576
    14.3226  15.9061

          k = 0.7500-0.2500 0.7500 (   875 PWs)   bands (ev):

    -4.9984  -2.2498   1.5021   2.8005   6.4929   9.3235  10.4206  11.1340
    14.8127  16.2709

          k = 0.6250-0.1250 0.6250 (   871 PWs)   bands (ev):

    -4.8530  -2.4458   1.0962   3.1035   6.7118  10.1046  10.6209  11.8043
    12.6060  13.9107

          k = 0.5000 0.0000 0.5000 (   883 PWs)   bands (ev):

    -5.5622  -1.4285   1.3743   3.6462   7.0836   9.7843  10.1030  10.3937
    12.5701  14.3078

          k = 0.0000 0.7500 0.0000 (   870 PWs)   bands (ev):

    -5.2310  -1.8230   2.4159   2.4159   5.6538   6.6432  12.8813  12.8813
    14.4610  16.8250

          k = 0.8750-0.1250 0.8750 (   877 PWs)   bands (ev):

    -4.4645  -2.8221   1.6823   2.3342   5.9687   7.0142  12.8603  13.1569
    15.4466  16.7437

          k = 0.7500 0.0000 0.7500 (   874 PWs)   bands (ev):

    -4.1521  -3.1344   0.9343   2.5823   6.2327   9.1353  12.2633  12.2833
    13.0840  14.6952

          k = 0.0000-1.0000 0.0000 (   846 PWs)   bands (ev):

    -3.6984  -3.6984   2.1671   2.1671   5.8168   5.8168  14.2762  14.2762
    16.5956  16.5956

          k =-0.2500 0.5000 0.0000 (   880 PWs)   bands (ev):

    -6.1530  -0.3069   2.3470   3.5340   7.4239   7.9699   9.6254  10.4832
    13.0348  15.1263

          k = 0.6250-0.3750 0.8750 (   876 PWs)   bands (ev):

    -5.4170  -1.7039   1.6748   3.0815   7.5671   8.4718   9.9255  11.0797
    14.2352  14.5541

          k = 0.5000-0.2500 0.7500 (   882 PWs)   bands (ev):

    -4.9108  -2.4783   1.4914   2.8794   7.5096   8.4224  10.7787  11.9673
    12.6408  16.0605

          k = 0.7500-0.2500 1.0000 (   880 PWs)   bands (ev):

    -5.0761  -2.0220   1.7323   2.3249   6.9500   7.6313  10.5920  12.7897
    15.1793  15.2845

          k = 0.6250-0.1250 0.8750 (   880 PWs)   bands (ev):

    -4.3626  -2.8854   1.1187   2.1393   7.3687   9.2964  10.0939  12.0754
    13.7259  16.4364

          k = 0.5000 0.0000 0.7500 (   885 PWs)   bands (ev):

    -4.6659  -2.5391   0.9729   2.4818   7.7568   9.5466  10.0260  11.7825
    13.0359  14.6217

          k =-0.2500-1.0000 0.0000 (   876 PWs)   bands (ev):

    -3.6574  -3.6574   1.7046   1.7046   7.0059   7.0059  12.5624  12.5624
    15.7914  15.7914

          k =-0.5000-1.0000 0.0000 (   876 PWs)   bands (ev):

    -3.6144  -3.6144   1.3484   1.3484   9.4559   9.4559   9.6558   9.6558
    15.7038  15.7038

     highest occupied, lowest unoccupied level (ev):     5.0406    5.1549

!    total energy              =     -16.01163685 Ry
     Harris-Foulkes estimate   =     -16.01163683 Ry
     estimated scf accuracy    <       0.00000004 Ry

     The total energy is the sum of the following terms:

     one-electron contribution =       3.32103249 Ry
     hartree contribution      =       1.21909006 Ry
     xc contribution           =      -4.61611787 Ry
     ewald contribution        =     -15.93564152 Ry

     convergence has been achieved in   5 iterations

     Writing output data file pwscf.save/

     init_run     :      0.20s CPU      0.66s WALL (       1 calls)
     electrons    :      3.09s CPU      3.22s WALL (       1 calls)

     Called by init_run:
     wfcinit      :      0.17s CPU      0.32s WALL (       1 calls)
     potinit      :      0.00s CPU      0.01s WALL (       1 calls)
     hinit0       :      0.02s CPU      0.24s WALL (       1 calls)

     Called by electrons:
     c_bands      :      2.64s CPU      2.72s WALL (       6 calls)
     sum_band     :      0.43s CPU      0.43s WALL (       6 calls)
     v_of_rho     :      0.01s CPU      0.01s WALL (       6 calls)
     mix_rho      :      0.01s CPU      0.01s WALL (       6 calls)

     Called by c_bands:
     init_us_2    :      0.07s CPU      0.07s WALL (     377 calls)
     cegterg      :      2.57s CPU      2.65s WALL (     174 calls)

     Called by sum_band:

     Called by *egterg:
     h_psi        :      2.02s CPU      2.10s WALL (     632 calls)
     g_psi        :      0.02s CPU      0.02s WALL (     429 calls)
     cdiaghg      :      0.15s CPU      0.25s WALL (     574 calls)

     Called by h_psi:
     h_psi:pot    :      1.99s CPU      2.07s WALL (     632 calls)
     h_psi:calbec :      0.08s CPU      0.11s WALL (     632 calls)
     vloc_psi     :      1.83s CPU      1.89s WALL (     632 calls)
     add_vuspsi   :      0.07s CPU      0.07s WALL (     632 calls)

     General routines
     calbec       :      0.08s CPU      0.11s WALL (     632 calls)
     fft          :      0.00s CPU      0.18s WALL (      18 calls)
     ffts         :      0.00s CPU      0.00s WALL (       6 calls)
     fftw         :      1.57s CPU      1.61s WALL (   10704 calls)

     Parallel routines

     PWSCF        :      3.34s CPU      4.28s WALL


   This run was terminated on:  19:39:35   7Oct2020            

=------------------------------------------------------------------------------=
   JOB DONE.
=------------------------------------------------------------------------------=
