
     Program PWSCF v.6.4.1 starts on  7Oct2020 at  4: 4: 4 

     This program is part of the open-source Quantum ESPRESSO suite
     for quantum simulation of materials; please cite
         "P. Giannozzi et al., J. Phys.:Condens. Matter 21 395502 (2009);
         "P. Giannozzi et al., J. Phys.:Condens. Matter 29 465901 (2017);
          URL http://www.quantum-espresso.org", 
     in publications or presentations arising from this work. More details at
     http://www.quantum-espresso.org/quote

     Parallel version (MPI), running on     1 processors

     MPI processes distributed on     1 nodes
     Waiting for input...
     Reading input from standard input
Warning: card &IONS ignored
Warning: card / ignored
Warning: card &CELL ignored
Warning: card / ignored

     Current dimensions of program PWSCF are:
     Max number of different atomic species (ntypx) = 10
     Max number of k-points (npk) =  40000
     Max angular momentum in pseudopotentials (lmaxx) =  3

     Subspace diagonalization in iterative solution of the eigenvalue problem:
     a serial algorithm will be used

     Message from routine setup:
     DEPRECATED: symmetry with ibrav=0, use correct ibrav instead

     G-vector sticks info
     --------------------
     sticks:   dense  smooth     PW     G-vecs:    dense   smooth      PW
     Sum         595     595    187                 9841     9841    1687



     bravais-lattice index     =            0
     lattice parameter (alat)  =       7.4161  a.u.
     unit-cell volume          =     288.4135 (a.u.)^3
     number of atoms/cell      =            2
     number of atomic types    =            1
     number of electrons       =         8.00
     number of Kohn-Sham states=            4
     kinetic-energy cutoff     =      40.0000  Ry
     charge density cutoff     =     160.0000  Ry
     convergence threshold     =      1.0E-07
     mixing beta               =       0.5000
     number of iterations used =            8  plain     mixing
     Exchange-correlation      = SLA PZ NOGX NOGC ( 1  1  0  0 0 0)

     celldm(1)=   7.416122  celldm(2)=   0.000000  celldm(3)=   0.000000
     celldm(4)=   0.000000  celldm(5)=   0.000000  celldm(6)=   0.000000

     crystal axes: (cart. coord. in units of alat)
               a(1) = (   0.000000   0.707107   0.707107 )  
               a(2) = (   0.707107   0.000000   0.707107 )  
               a(3) = (   0.707107   0.707107   0.000000 )  

     reciprocal axes: (cart. coord. in units 2 pi/alat)
               b(1) = ( -0.707107  0.707107  0.707107 )  
               b(2) = (  0.707107 -0.707107  0.707107 )  
               b(3) = (  0.707107  0.707107 -0.707107 )  


     PseudoPot. # 1 for Ge read from file:
     /home/modeler/qe_pseudo/Ge.pz-bhs.UPF
     MD5 check sum: 4f8fee77de72fb640d24dcbf01bda005
     Pseudo is Norm-conserving, Zval =  4.0
     Generated by new atomic code, or converted to UPF format
     Using radial grid of  291 points,  2 beta functions with: 
                l(1) =   0
                l(2) =   1

     atomic species   valence    mass     pseudopotential
        Ge             4.00    72.63000     Ge( 1.00)

     48 Sym. Ops., with inversion, found (24 have fractional translation)



   Cartesian axes

     site n.     atom                  positions (alat units)
         1           Ge  tau(   1) = (   0.0000000   0.0000000   0.0000000  )
         2           Ge  tau(   2) = (   0.3535534   0.3535534   0.3535534  )

     number of k points=    10
                       cart. coord. in units 2pi/alat
        k(    1) = (   0.0000000   0.0000000   0.0000000), wk =   0.0160000
        k(    2) = (   0.1414214   0.1414214  -0.1414214), wk =   0.1280000
        k(    3) = (   0.2828427   0.2828427  -0.2828427), wk =   0.1280000
        k(    4) = (   0.2828427   0.0000000   0.0000000), wk =   0.0960000
        k(    5) = (   0.4242641   0.1414214  -0.1414214), wk =   0.3840000
        k(    6) = (  -0.1414214  -0.4242641   0.4242641), wk =   0.3840000
        k(    7) = (   0.0000000  -0.2828427   0.2828427), wk =   0.1920000
        k(    8) = (   0.5656854   0.0000000   0.0000000), wk =   0.0960000
        k(    9) = (   0.0000000  -0.5656854   0.5656854), wk =   0.1920000
        k(   10) = (  -0.1414214  -0.4242641   0.7071068), wk =   0.3840000

     Dense  grid:     9841 G-vectors     FFT dimensions: (  32,  32,  32)

     Estimated max dynamical RAM per process >       8.04 MB

     Initial potential from superposition of free atoms

     starting charge    6.99990, renormalised to    8.00000
     Starting wfcs are    8 randomized atomic wfcs

     total cpu time spent up to now is        0.1 secs

     Self-consistent Calculation

     iteration #  1     ecut=    40.00 Ry     beta= 0.50
     Davidson diagonalization with overlap
     ethr =  1.00E-02,  avg # of iterations =  1.4

     Threshold (ethr) on eigenvalues was too large:
     Diagonalizing with lowered threshold

     Davidson diagonalization with overlap
     ethr =  2.88E-04,  avg # of iterations =  2.8

     total cpu time spent up to now is        0.3 secs

     total energy              =     -16.00757947 Ry
     Harris-Foulkes estimate   =     -16.01087430 Ry
     estimated scf accuracy    <       0.02504607 Ry

     iteration #  2     ecut=    40.00 Ry     beta= 0.50
     Davidson diagonalization with overlap
     ethr =  3.13E-04,  avg # of iterations =  1.0

     total cpu time spent up to now is        0.3 secs

     total energy              =     -16.00657191 Ry
     Harris-Foulkes estimate   =     -16.00764718 Ry
     estimated scf accuracy    <       0.00600050 Ry

     iteration #  3     ecut=    40.00 Ry     beta= 0.50
     Davidson diagonalization with overlap
     ethr =  7.50E-05,  avg # of iterations =  1.0

     total cpu time spent up to now is        0.4 secs

     total energy              =     -16.00662908 Ry
     Harris-Foulkes estimate   =     -16.00663039 Ry
     estimated scf accuracy    <       0.00000292 Ry

     iteration #  4     ecut=    40.00 Ry     beta= 0.50
     Davidson diagonalization with overlap
     ethr =  3.65E-08,  avg # of iterations =  4.6

     total cpu time spent up to now is        0.5 secs

     total energy              =     -16.00664948 Ry
     Harris-Foulkes estimate   =     -16.00664949 Ry
     estimated scf accuracy    <       0.00000021 Ry

     iteration #  5     ecut=    40.00 Ry     beta= 0.50
     Davidson diagonalization with overlap
     ethr =  2.67E-09,  avg # of iterations =  2.3

     total cpu time spent up to now is        0.6 secs

     End of self-consistent calculation

          k = 0.0000 0.0000 0.0000 (  1243 PWs)   bands (ev):

    -6.9599   6.0066   6.0066   6.0066

          k = 0.1414 0.1414-0.1414 (  1239 PWs)   bands (ev):

    -6.4888   2.2165   5.3187   5.3187

          k = 0.2828 0.2828-0.2828 (  1221 PWs)   bands (ev):

    -5.2588  -1.1674   4.6683   4.6683

          k = 0.2828 0.0000 0.0000 (  1251 PWs)   bands (ev):

    -6.3243   2.3185   4.3336   4.3336

          k = 0.4243 0.1414-0.1414 (  1244 PWs)   bands (ev):

    -5.2767  -0.4001   2.9935   3.7567

          k =-0.1414-0.4243 0.4243 (  1228 PWs)   bands (ev):

    -4.4944  -1.7227   2.1428   4.0441

          k = 0.0000-0.2828 0.2828 (  1235 PWs)   bands (ev):

    -5.7276   0.4555   2.7052   4.9929

          k = 0.5657 0.0000 0.0000 (  1238 PWs)   bands (ev):

    -4.4410  -1.4461   2.9999   2.9999

          k = 0.0000-0.5657 0.5657 (  1230 PWs)   bands (ev):

    -3.3415  -2.6795   1.6571   3.1220

          k =-0.1414-0.4243 0.7071 (  1219 PWs)   bands (ev):

    -4.0577  -1.8326   1.7199   2.7498

     highest occupied level (ev):     6.0066

!    total energy              =     -16.00664950 Ry
     Harris-Foulkes estimate   =     -16.00664950 Ry
     estimated scf accuracy    <       0.00000002 Ry

     The total energy is the sum of the following terms:

     one-electron contribution =       3.99872478 Ry
     hartree contribution      =       1.14236386 Ry
     xc contribution           =      -4.71201485 Ry
     ewald contribution        =     -16.43572329 Ry

     convergence has been achieved in   5 iterations

     Forces acting on atoms (cartesian axes, Ry/au):

     atom    1 type  1   force =     0.00000000   -0.00000000    0.00000000
     atom    2 type  1   force =    -0.00000000    0.00000000   -0.00000000

     Total force =     0.000000     Total SCF correction =     0.000000


     Computing stress (Cartesian axis) and pressure

          total   stress  (Ry/bohr**3)                   (kbar)     P=   25.97
   0.00017654   0.00000000  -0.00000000         25.97      0.00     -0.00
  -0.00000000   0.00017654  -0.00000000         -0.00     25.97     -0.00
  -0.00000000  -0.00000000   0.00017654         -0.00     -0.00     25.97


     init_run     :      0.08s CPU      0.08s WALL (       1 calls)
     electrons    :      0.51s CPU      0.52s WALL (       1 calls)
     forces       :      0.01s CPU      0.01s WALL (       1 calls)
     stress       :      0.05s CPU      0.06s WALL (       1 calls)

     Called by init_run:
     wfcinit      :      0.05s CPU      0.05s WALL (       1 calls)
     potinit      :      0.00s CPU      0.00s WALL (       1 calls)
     hinit0       :      0.02s CPU      0.02s WALL (       1 calls)

     Called by electrons:
     c_bands      :      0.41s CPU      0.41s WALL (       6 calls)
     sum_band     :      0.08s CPU      0.08s WALL (       6 calls)
     v_of_rho     :      0.01s CPU      0.01s WALL (       6 calls)
     mix_rho      :      0.01s CPU      0.01s WALL (       6 calls)

     Called by c_bands:
     init_us_2    :      0.03s CPU      0.03s WALL (     150 calls)
     cegterg      :      0.38s CPU      0.38s WALL (      60 calls)

     Called by sum_band:

     Called by *egterg:
     h_psi        :      0.35s CPU      0.35s WALL (     201 calls)
     g_psi        :      0.00s CPU      0.00s WALL (     131 calls)
     cdiaghg      :      0.01s CPU      0.01s WALL (     181 calls)

     Called by h_psi:
     h_psi:pot    :      0.34s CPU      0.34s WALL (     201 calls)
     h_psi:calbec :      0.02s CPU      0.02s WALL (     201 calls)
     vloc_psi     :      0.31s CPU      0.31s WALL (     201 calls)
     add_vuspsi   :      0.01s CPU      0.01s WALL (     201 calls)

     General routines
     calbec       :      0.02s CPU      0.02s WALL (     251 calls)
     fft          :      0.01s CPU      0.01s WALL (      23 calls)
     ffts         :      0.00s CPU      0.00s WALL (       6 calls)
     fftw         :      0.27s CPU      0.27s WALL (    1712 calls)

     Parallel routines

     PWSCF        :      0.69s CPU      0.69s WALL


   This run was terminated on:   4: 4: 5   7Oct2020            

=------------------------------------------------------------------------------=
   JOB DONE.
=------------------------------------------------------------------------------=
