
     Program PWSCF v.6.4.1 starts on  7Oct2020 at  2: 2:10 

     This program is part of the open-source Quantum ESPRESSO suite
     for quantum simulation of materials; please cite
         "P. Giannozzi et al., J. Phys.:Condens. Matter 21 395502 (2009);
         "P. Giannozzi et al., J. Phys.:Condens. Matter 29 465901 (2017);
          URL http://www.quantum-espresso.org", 
     in publications or presentations arising from this work. More details at
     http://www.quantum-espresso.org/quote

     Parallel version (MPI), running on     1 processors

     MPI processes distributed on     1 nodes
     Waiting for input...
     Reading input from standard input
Warning: card &IONS ignored
Warning: card / ignored
Warning: card &CELL ignored
Warning: card / ignored

     Current dimensions of program PWSCF are:
     Max number of different atomic species (ntypx) = 10
     Max number of k-points (npk) =  40000
     Max angular momentum in pseudopotentials (lmaxx) =  3

     Subspace diagonalization in iterative solution of the eigenvalue problem:
     a serial algorithm will be used

     Message from routine setup:
     DEPRECATED: symmetry with ibrav=0, use correct ibrav instead

     G-vector sticks info
     --------------------
     sticks:   dense  smooth     PW     G-vecs:    dense   smooth      PW
     Sum         475     475    151                 6855     6855    1243



     bravais-lattice index     =            0
     lattice parameter (alat)  =       7.6014  a.u.
     unit-cell volume          =     310.5743 (a.u.)^3
     number of atoms/cell      =            2
     number of atomic types    =            1
     number of electrons       =         8.00
     number of Kohn-Sham states=            4
     kinetic-energy cutoff     =      30.0000  Ry
     charge density cutoff     =     120.0000  Ry
     convergence threshold     =      1.0E-07
     mixing beta               =       0.5000
     number of iterations used =            8  plain     mixing
     Exchange-correlation      = SLA PZ NOGX NOGC ( 1  1  0  0 0 0)

     celldm(1)=   7.601398  celldm(2)=   0.000000  celldm(3)=   0.000000
     celldm(4)=   0.000000  celldm(5)=   0.000000  celldm(6)=   0.000000

     crystal axes: (cart. coord. in units of alat)
               a(1) = (   0.000000   0.707107   0.707107 )  
               a(2) = (   0.707107   0.000000   0.707107 )  
               a(3) = (   0.707107   0.707107   0.000000 )  

     reciprocal axes: (cart. coord. in units 2 pi/alat)
               b(1) = ( -0.707107  0.707107  0.707107 )  
               b(2) = (  0.707107 -0.707107  0.707107 )  
               b(3) = (  0.707107  0.707107 -0.707107 )  


     PseudoPot. # 1 for Ge read from file:
     /home/modeler/qe_pseudo/Ge.pz-bhs.UPF
     MD5 check sum: 4f8fee77de72fb640d24dcbf01bda005
     Pseudo is Norm-conserving, Zval =  4.0
     Generated by new atomic code, or converted to UPF format
     Using radial grid of  291 points,  2 beta functions with: 
                l(1) =   0
                l(2) =   1

     atomic species   valence    mass     pseudopotential
        Ge             4.00    72.63000     Ge( 1.00)

     24 Sym. Ops. (no inversion) found



   Cartesian axes

     site n.     atom                  positions (alat units)
         1           Ge  tau(   1) = (   0.0000000   0.0000000   0.0000000  )
         2           Ge  tau(   2) = (   0.3535524   0.3535524   0.3535524  )

     number of k points=     8
                       cart. coord. in units 2pi/alat
        k(    1) = (   0.0000000   0.0000000   0.0000000), wk =   0.0312500
        k(    2) = (   0.1767767   0.1767767  -0.1767767), wk =   0.2500000
        k(    3) = (  -0.3535534  -0.3535534   0.3535534), wk =   0.1250000
        k(    4) = (   0.3535534   0.0000000   0.0000000), wk =   0.1875000
        k(    5) = (  -0.1767767  -0.5303301   0.5303301), wk =   0.7500000
        k(    6) = (   0.0000000  -0.3535534   0.3535534), wk =   0.3750000
        k(    7) = (  -0.7071068   0.0000000   0.0000000), wk =   0.0937500
        k(    8) = (  -0.7071068   0.3535534   0.0000000), wk =   0.1875000

     Dense  grid:     6855 G-vectors     FFT dimensions: (  27,  27,  27)

     Estimated max dynamical RAM per process >       5.30 MB

     Initial potential from superposition of free atoms

     starting charge    6.99990, renormalised to    8.00000
     Starting wfcs are    8 randomized atomic wfcs

     total cpu time spent up to now is        0.1 secs

     Self-consistent Calculation

     iteration #  1     ecut=    30.00 Ry     beta= 0.50
     Davidson diagonalization with overlap
     ethr =  1.00E-02,  avg # of iterations =  1.2

     Threshold (ethr) on eigenvalues was too large:
     Diagonalizing with lowered threshold

     Davidson diagonalization with overlap
     ethr =  3.20E-04,  avg # of iterations =  2.5

     total cpu time spent up to now is        0.3 secs

     total energy              =     -15.99552132 Ry
     Harris-Foulkes estimate   =     -15.99947332 Ry
     estimated scf accuracy    <       0.02711881 Ry

     iteration #  2     ecut=    30.00 Ry     beta= 0.50
     Davidson diagonalization with overlap
     ethr =  3.39E-04,  avg # of iterations =  1.0

     total cpu time spent up to now is        0.4 secs

     total energy              =     -15.99440566 Ry
     Harris-Foulkes estimate   =     -15.99566599 Ry
     estimated scf accuracy    <       0.00650424 Ry

     iteration #  3     ecut=    30.00 Ry     beta= 0.50
     Davidson diagonalization with overlap
     ethr =  8.13E-05,  avg # of iterations =  1.0

     total cpu time spent up to now is        0.4 secs

     total energy              =     -15.99449523 Ry
     Harris-Foulkes estimate   =     -15.99450030 Ry
     estimated scf accuracy    <       0.00000981 Ry

     iteration #  4     ecut=    30.00 Ry     beta= 0.50
     Davidson diagonalization with overlap
     ethr =  1.23E-07,  avg # of iterations =  4.8

     total cpu time spent up to now is        0.6 secs

     total energy              =     -15.99452581 Ry
     Harris-Foulkes estimate   =     -15.99452602 Ry
     estimated scf accuracy    <       0.00000070 Ry

     iteration #  5     ecut=    30.00 Ry     beta= 0.50
     Davidson diagonalization with overlap
     ethr =  8.75E-09,  avg # of iterations =  2.5

     total cpu time spent up to now is        0.7 secs

     total energy              =     -15.99452585 Ry
     Harris-Foulkes estimate   =     -15.99452595 Ry
     estimated scf accuracy    <       0.00000018 Ry

     iteration #  6     ecut=    30.00 Ry     beta= 0.50
     Davidson diagonalization with overlap
     ethr =  2.21E-09,  avg # of iterations =  2.6

     total cpu time spent up to now is        0.8 secs

     End of self-consistent calculation

          k = 0.0000 0.0000 0.0000 (   869 PWs)   bands (ev):

    -7.1755   5.2698   5.2698   5.2698

          k = 0.1768 0.1768-0.1768 (   878 PWs)   bands (ev):

    -6.4931   0.5852   4.4373   4.4373

          k =-0.3536-0.3536 0.3536 (   862 PWs)   bands (ev):

    -5.2480  -2.2377   3.9453   3.9453

          k = 0.3536 0.0000 0.0000 (   849 PWs)   bands (ev):

    -6.2443   0.5545   3.3195   3.3196

          k =-0.1768-0.5303 0.5303 (   863 PWs)   bands (ev):

    -4.8561  -2.0689   1.6451   2.9744

          k = 0.0000-0.3536 0.3536 (   867 PWs)   bands (ev):

    -5.4319  -1.2311   1.5090   3.8415

          k =-0.7071 0.0000 0.0000 (   846 PWs)   bands (ev):

    -3.5350  -3.5349   2.3270   2.3270

          k =-0.7071 0.3536 0.0000 (   876 PWs)   bands (ev):

    -3.4451  -3.4450   1.4788   1.4788

     highest occupied level (ev):     5.2698

!    total energy              =     -15.99452588 Ry
     Harris-Foulkes estimate   =     -15.99452589 Ry
     estimated scf accuracy    <       0.00000002 Ry

     The total energy is the sum of the following terms:

     one-electron contribution =       3.45819766 Ry
     hartree contribution      =       1.22714985 Ry
     xc contribution           =      -4.64475482 Ry
     ewald contribution        =     -16.03511858 Ry

     convergence has been achieved in   6 iterations

     Forces acting on atoms (cartesian axes, Ry/au):

     atom    1 type  1   force =     0.00000000    0.00000000    0.00000000
     atom    2 type  1   force =     0.00000000   -0.00000000    0.00000000

     Total force =     0.000000     Total SCF correction =     0.000000


     Computing stress (Cartesian axis) and pressure

          total   stress  (Ry/bohr**3)                   (kbar)     P=  -25.66
  -0.00017442  -0.00000000   0.00000000        -25.66     -0.00      0.00
  -0.00000000  -0.00017442  -0.00000000         -0.00    -25.66     -0.00
   0.00000000  -0.00000000  -0.00017442          0.00     -0.00    -25.66


     init_run     :      0.09s CPU      0.09s WALL (       1 calls)
     electrons    :      0.69s CPU      0.70s WALL (       1 calls)
     forces       :      0.01s CPU      0.01s WALL (       1 calls)
     stress       :      0.03s CPU      0.03s WALL (       1 calls)

     Called by init_run:
     wfcinit      :      0.06s CPU      0.06s WALL (       1 calls)
     potinit      :      0.00s CPU      0.00s WALL (       1 calls)
     hinit0       :      0.02s CPU      0.02s WALL (       1 calls)

     Called by electrons:
     c_bands      :      0.56s CPU      0.57s WALL (       7 calls)
     sum_band     :      0.11s CPU      0.11s WALL (       7 calls)
     v_of_rho     :      0.01s CPU      0.01s WALL (       7 calls)
     mix_rho      :      0.01s CPU      0.01s WALL (       7 calls)

     Called by c_bands:
     init_us_2    :      0.02s CPU      0.02s WALL (     136 calls)
     cegterg      :      0.54s CPU      0.55s WALL (      56 calls)

     Called by sum_band:

     Called by *egterg:
     h_psi        :      0.54s CPU      0.55s WALL (     189 calls)
     g_psi        :      0.00s CPU      0.00s WALL (     125 calls)
     cdiaghg      :      0.01s CPU      0.01s WALL (     173 calls)

     Called by h_psi:
     h_psi:pot    :      0.54s CPU      0.55s WALL (     189 calls)
     h_psi:calbec :      0.01s CPU      0.01s WALL (     189 calls)
     vloc_psi     :      0.52s CPU      0.53s WALL (     189 calls)
     add_vuspsi   :      0.01s CPU      0.01s WALL (     189 calls)

     General routines
     calbec       :      0.01s CPU      0.01s WALL (     229 calls)
     fft          :      0.02s CPU      0.02s WALL (      26 calls)
     ffts         :      0.00s CPU      0.00s WALL (       7 calls)
     fftw         :      0.55s CPU      0.56s WALL (    1614 calls)

     Parallel routines

     PWSCF        :      0.85s CPU      0.86s WALL


   This run was terminated on:   2: 2:11   7Oct2020            

=------------------------------------------------------------------------------=
   JOB DONE.
=------------------------------------------------------------------------------=
