
     Program PWSCF v.6.4.1 starts on  7Oct2020 at  0:38: 4 

     This program is part of the open-source Quantum ESPRESSO suite
     for quantum simulation of materials; please cite
         "P. Giannozzi et al., J. Phys.:Condens. Matter 21 395502 (2009);
         "P. Giannozzi et al., J. Phys.:Condens. Matter 29 465901 (2017);
          URL http://www.quantum-espresso.org", 
     in publications or presentations arising from this work. More details at
     http://www.quantum-espresso.org/quote

     Parallel version (MPI), running on     1 processors

     MPI processes distributed on     1 nodes
     Waiting for input...
     Reading input from standard input
Warning: card &IONS ignored
Warning: card / ignored
Warning: card &CELL ignored
Warning: card / ignored

     Current dimensions of program PWSCF are:
     Max number of different atomic species (ntypx) = 10
     Max number of k-points (npk) =  40000
     Max angular momentum in pseudopotentials (lmaxx) =  3

     Subspace diagonalization in iterative solution of the eigenvalue problem:
     a serial algorithm will be used

     Message from routine setup:
     DEPRECATED: symmetry with ibrav=0, use correct ibrav instead

     G-vector sticks info
     --------------------
     sticks:   dense  smooth     PW     G-vecs:    dense   smooth      PW
     Sum         559     559    163                 8609     8609    1459



     bravais-lattice index     =            0
     lattice parameter (alat)  =       6.6812  a.u.
     unit-cell volume          =     210.8855 (a.u.)^3
     number of atoms/cell      =            2
     number of atomic types    =            1
     number of electrons       =         8.00
     number of Kohn-Sham states=            4
     kinetic-energy cutoff     =      45.0000  Ry
     charge density cutoff     =     180.0000  Ry
     convergence threshold     =      1.0E-07
     mixing beta               =       0.5000
     number of iterations used =            8  plain     mixing
     Exchange-correlation      = SLA PZ NOGX NOGC ( 1  1  0  0 0 0)

     celldm(1)=   6.681191  celldm(2)=   0.000000  celldm(3)=   0.000000
     celldm(4)=   0.000000  celldm(5)=   0.000000  celldm(6)=   0.000000

     crystal axes: (cart. coord. in units of alat)
               a(1) = (   0.000000   0.707107   0.707107 )  
               a(2) = (   0.707107   0.000000   0.707107 )  
               a(3) = (   0.707107   0.707107   0.000000 )  

     reciprocal axes: (cart. coord. in units 2 pi/alat)
               b(1) = ( -0.707107  0.707107  0.707107 )  
               b(2) = (  0.707107 -0.707107  0.707107 )  
               b(3) = (  0.707107  0.707107 -0.707107 )  


     PseudoPot. # 1 for Ge read from file:
     /home/modeler/qe_pseudo/Ge.pz-bhs.UPF
     MD5 check sum: 4f8fee77de72fb640d24dcbf01bda005
     Pseudo is Norm-conserving, Zval =  4.0
     Generated by new atomic code, or converted to UPF format
     Using radial grid of  291 points,  2 beta functions with: 
                l(1) =   0
                l(2) =   1

     atomic species   valence    mass     pseudopotential
        Ge             4.00    72.63000     Ge( 1.00)

      4 Sym. Ops. (no inversion) found



   Cartesian axes

     site n.     atom                  positions (alat units)
         1           Ge  tau(   1) = (   0.0000000   0.0000000   0.0707107  )
         2           Ge  tau(   2) = (   0.3535534   0.3535534   0.3535534  )

     number of k points=    18
                       cart. coord. in units 2pi/alat
        k(    1) = (   0.0000000   0.0000000   0.0000000), wk =   0.0312500
        k(    2) = (   0.1767767   0.1767767  -0.1767767), wk =   0.1250000
        k(    3) = (  -0.3535534  -0.3535534   0.3535534), wk =   0.0625000
        k(    4) = (   0.3535534   0.0000000   0.0000000), wk =   0.1250000
        k(    5) = (  -0.1767767  -0.5303301   0.5303301), wk =   0.2500000
        k(    6) = (   0.0000000  -0.3535534   0.3535534), wk =   0.2500000
        k(    7) = (  -0.7071068   0.0000000   0.0000000), wk =   0.0625000
        k(    8) = (  -0.7071068   0.3535534   0.0000000), wk =   0.1250000
        k(    9) = (   0.1767767  -0.1767767  -0.1767767), wk =   0.1250000
        k(   10) = (  -0.3535534   0.3535534   0.3535534), wk =   0.0625000
        k(   11) = (   0.0000000   0.0000000   0.3535534), wk =   0.0625000
        k(   12) = (  -0.5303301   0.1767767   0.5303301), wk =   0.2500000
        k(   13) = (   0.5303301   0.5303301  -0.1767767), wk =   0.1250000
        k(   14) = (  -0.5303301   0.5303301   0.1767767), wk =   0.1250000
        k(   15) = (   0.3535534   0.3535534   0.0000000), wk =   0.0625000
        k(   16) = (  -0.3535534   0.3535534   0.0000000), wk =   0.0625000
        k(   17) = (   0.0000000   0.0000000  -0.7071068), wk =   0.0312500
        k(   18) = (   0.7071068  -0.0000000   0.3535534), wk =   0.0625000

     Dense  grid:     8609 G-vectors     FFT dimensions: (  30,  30,  30)

     Estimated max dynamical RAM per process >       7.45 MB

     Initial potential from superposition of free atoms

     starting charge    6.99990, renormalised to    8.00000
     Starting wfcs are    8 randomized atomic wfcs

     total cpu time spent up to now is        0.3 secs

     Self-consistent Calculation

     iteration #  1     ecut=    45.00 Ry     beta= 0.50
     Davidson diagonalization with overlap
     ethr =  1.00E-02,  avg # of iterations =  1.6

     Threshold (ethr) on eigenvalues was too large:
     Diagonalizing with lowered threshold

     Davidson diagonalization with overlap
     ethr =  3.05E-04,  avg # of iterations =  2.7

     total cpu time spent up to now is        0.9 secs

     total energy              =     -15.82357128 Ry
     Harris-Foulkes estimate   =     -15.82799076 Ry
     estimated scf accuracy    <       0.02915327 Ry

     iteration #  2     ecut=    45.00 Ry     beta= 0.50
     Davidson diagonalization with overlap
     ethr =  3.64E-04,  avg # of iterations =  1.0

     total cpu time spent up to now is        1.2 secs

     total energy              =     -15.82272880 Ry
     Harris-Foulkes estimate   =     -15.82384327 Ry
     estimated scf accuracy    <       0.00634038 Ry

     iteration #  3     ecut=    45.00 Ry     beta= 0.50
     Davidson diagonalization with overlap
     ethr =  7.93E-05,  avg # of iterations =  1.0

     total cpu time spent up to now is        1.5 secs

     total energy              =     -15.82289062 Ry
     Harris-Foulkes estimate   =     -15.82290961 Ry
     estimated scf accuracy    <       0.00004197 Ry

     iteration #  4     ecut=    45.00 Ry     beta= 0.50
     Davidson diagonalization with overlap
     c_bands:  1 eigenvalues not converged
     ethr =  5.25E-07,  avg # of iterations =  3.9

     total cpu time spent up to now is        1.9 secs

     total energy              =     -15.82345389 Ry
     Harris-Foulkes estimate   =     -15.82345576 Ry
     estimated scf accuracy    <       0.00008602 Ry

     iteration #  5     ecut=    45.00 Ry     beta= 0.50
     Davidson diagonalization with overlap
     ethr =  5.25E-07,  avg # of iterations =  1.2

     total cpu time spent up to now is        2.2 secs

     total energy              =     -15.82343020 Ry
     Harris-Foulkes estimate   =     -15.82345420 Ry
     estimated scf accuracy    <       0.00008123 Ry

     iteration #  6     ecut=    45.00 Ry     beta= 0.50
     Davidson diagonalization with overlap
     ethr =  5.25E-07,  avg # of iterations =  1.2

     total cpu time spent up to now is        2.5 secs

     total energy              =     -15.82342417 Ry
     Harris-Foulkes estimate   =     -15.82343236 Ry
     estimated scf accuracy    <       0.00002553 Ry

     iteration #  7     ecut=    45.00 Ry     beta= 0.50
     Davidson diagonalization with overlap
     ethr =  3.19E-07,  avg # of iterations =  1.0

     total cpu time spent up to now is        2.7 secs

     total energy              =     -15.82342168 Ry
     Harris-Foulkes estimate   =     -15.82342511 Ry
     estimated scf accuracy    <       0.00000655 Ry

     iteration #  8     ecut=    45.00 Ry     beta= 0.50
     Davidson diagonalization with overlap
     ethr =  8.19E-08,  avg # of iterations =  3.2

     total cpu time spent up to now is        3.1 secs

     total energy              =     -15.82342362 Ry
     Harris-Foulkes estimate   =     -15.82342410 Ry
     estimated scf accuracy    <       0.00000103 Ry

     iteration #  9     ecut=    45.00 Ry     beta= 0.50
     Davidson diagonalization with overlap
     ethr =  1.29E-08,  avg # of iterations =  1.9

     total cpu time spent up to now is        3.4 secs

     total energy              =     -15.82342368 Ry
     Harris-Foulkes estimate   =     -15.82342371 Ry
     estimated scf accuracy    <       0.00000013 Ry

     iteration # 10     ecut=    45.00 Ry     beta= 0.50
     Davidson diagonalization with overlap
     ethr =  1.65E-09,  avg # of iterations =  1.7

     total cpu time spent up to now is        3.7 secs

     End of self-consistent calculation

          k = 0.0000 0.0000 0.0000 (  1067 PWs)   bands (ev):

    -5.7935   8.4601  10.2334  11.5158

          k = 0.1768 0.1768-0.1768 (  1077 PWs)   bands (ev):

    -4.8294   3.7981   8.3279   9.5020

          k =-0.3536-0.3536 0.3536 (  1068 PWs)   bands (ev):

    -2.5758  -0.6131   7.5344   8.8465

          k = 0.3536 0.0000 0.0000 (  1062 PWs)   bands (ev):

    -4.5357   4.6978   7.0438   7.4228

          k =-0.1768-0.5303 0.5303 (  1082 PWs)   bands (ev):

    -2.3105   0.4205   5.0331   6.6192

          k = 0.0000-0.3536 0.3536 (  1081 PWs)   bands (ev):

    -3.3732   2.3305   4.1534   8.0015

          k =-0.7071 0.0000 0.0000 (  1090 PWs)   bands (ev):

    -0.7709  -0.7709   5.6710   5.6711

          k =-0.7071 0.3536 0.0000 (  1084 PWs)   bands (ev):

    -1.1292   0.3038   3.6075   4.4288

          k = 0.1768-0.1768-0.1768 (  1077 PWs)   bands (ev):

    -4.8988   4.7168   7.6199   9.4726

          k =-0.3536 0.3536 0.3536 (  1068 PWs)   bands (ev):

    -3.2245   0.7707   7.0519   8.9163

          k = 0.0000 0.0000 0.3536 (  1062 PWs)   bands (ev):

    -4.5451   5.3614   6.2580   7.3555

          k =-0.5303 0.1768 0.5303 (  1082 PWs)   bands (ev):

    -2.7117   1.7723   3.9743   6.7413

          k = 0.5303 0.5303-0.1768 (  1082 PWs)   bands (ev):

    -2.4137   0.8495   4.2235   6.9165

          k =-0.5303 0.5303 0.1768 (  1082 PWs)   bands (ev):

    -2.7287   1.6214   5.0357   5.8263

          k = 0.3536 0.3536 0.0000 (  1081 PWs)   bands (ev):

    -3.1716   1.4153   4.3846   8.5053

          k =-0.3536 0.3536 0.0000 (  1081 PWs)   bands (ev):

    -3.5377   3.3732   4.1689   6.9243

          k = 0.0000 0.0000-0.7071 (  1090 PWs)   bands (ev):

    -1.5213   0.2988   4.9849   5.8617

          k = 0.7071-0.0000 0.3536 (  1084 PWs)   bands (ev):

    -0.5269  -0.5269   4.1505   4.1505

     highest occupied level (ev):    11.5158

!    total energy              =     -15.82342365 Ry
     Harris-Foulkes estimate   =     -15.82342369 Ry
     estimated scf accuracy    <       0.00000006 Ry

     The total energy is the sum of the following terms:

     one-electron contribution =       6.52756403 Ry
     hartree contribution      =       0.88767519 Ry
     xc contribution           =      -5.06385353 Ry
     ewald contribution        =     -18.17480934 Ry

     convergence has been achieved in  10 iterations

     Forces acting on atoms (cartesian axes, Ry/au):

     atom    1 type  1   force =     0.00000000    0.00000000   -0.21719623
     atom    2 type  1   force =     0.00000000    0.00000000    0.21719623

     Total force =     0.307162     Total SCF correction =     0.000120


     Computing stress (Cartesian axis) and pressure

          total   stress  (Ry/bohr**3)                   (kbar)     P=  590.85
   0.00427979   0.00220594  -0.00000000        629.58    324.51     -0.00
   0.00220594   0.00427979   0.00000000        324.51    629.58      0.00
   0.00000000  -0.00000000   0.00348998          0.00     -0.00    513.39


     init_run     :      0.24s CPU      0.24s WALL (       1 calls)
     electrons    :      3.41s CPU      3.42s WALL (       1 calls)
     forces       :      0.01s CPU      0.02s WALL (       1 calls)
     stress       :      0.07s CPU      0.07s WALL (       1 calls)

     Called by init_run:
     wfcinit      :      0.21s CPU      0.21s WALL (       1 calls)
     potinit      :      0.01s CPU      0.01s WALL (       1 calls)
     hinit0       :      0.02s CPU      0.02s WALL (       1 calls)

     Called by electrons:
     c_bands      :      2.78s CPU      2.78s WALL (      11 calls)
     sum_band     :      0.56s CPU      0.57s WALL (      11 calls)
     v_of_rho     :      0.04s CPU      0.04s WALL (      11 calls)
     mix_rho      :      0.03s CPU      0.03s WALL (      11 calls)

     Called by c_bands:
     init_us_2    :      0.09s CPU      0.09s WALL (     450 calls)
     cegterg      :      2.70s CPU      2.70s WALL (     198 calls)

     Called by sum_band:

     Called by *egterg:
     h_psi        :      2.68s CPU      2.68s WALL (     584 calls)
     g_psi        :      0.01s CPU      0.01s WALL (     368 calls)
     cdiaghg      :      0.04s CPU      0.04s WALL (     548 calls)

     Called by h_psi:
     h_psi:pot    :      2.67s CPU      2.67s WALL (     584 calls)
     h_psi:calbec :      0.05s CPU      0.05s WALL (     584 calls)
     vloc_psi     :      2.58s CPU      2.58s WALL (     584 calls)
     add_vuspsi   :      0.04s CPU      0.04s WALL (     584 calls)

     General routines
     calbec       :      0.05s CPU      0.06s WALL (     674 calls)
     fft          :      0.05s CPU      0.05s WALL (      38 calls)
     ffts         :      0.01s CPU      0.01s WALL (      11 calls)
     fftw         :      2.79s CPU      2.80s WALL (    4980 calls)

     Parallel routines

     PWSCF        :      3.77s CPU      3.78s WALL


   This run was terminated on:   0:38: 8   7Oct2020            

=------------------------------------------------------------------------------=
   JOB DONE.
=------------------------------------------------------------------------------=
