
     Program PWSCF v.6.4.1 starts on  7Oct2020 at  2: 2:39 

     This program is part of the open-source Quantum ESPRESSO suite
     for quantum simulation of materials; please cite
         "P. Giannozzi et al., J. Phys.:Condens. Matter 21 395502 (2009);
         "P. Giannozzi et al., J. Phys.:Condens. Matter 29 465901 (2017);
          URL http://www.quantum-espresso.org", 
     in publications or presentations arising from this work. More details at
     http://www.quantum-espresso.org/quote

     Parallel version (MPI), running on     1 processors

     MPI processes distributed on     1 nodes
     Waiting for input...
     Reading input from standard input
Warning: card &IONS ignored
Warning: card / ignored
Warning: card &CELL ignored
Warning: card / ignored

     Current dimensions of program PWSCF are:
     Max number of different atomic species (ntypx) = 10
     Max number of k-points (npk) =  40000
     Max angular momentum in pseudopotentials (lmaxx) =  3

     Subspace diagonalization in iterative solution of the eigenvalue problem:
     a serial algorithm will be used

     Message from routine setup:
     DEPRECATED: symmetry with ibrav=0, use correct ibrav instead

     G-vector sticks info
     --------------------
     sticks:   dense  smooth     PW     G-vecs:    dense   smooth      PW
     Sum        1123    1123    313                24597    24597    3839



     bravais-lattice index     =            0
     lattice parameter (alat)  =       7.6014  a.u.
     unit-cell volume          =     310.5743 (a.u.)^3
     number of atoms/cell      =            2
     number of atomic types    =            1
     number of electrons       =         8.00
     number of Kohn-Sham states=            4
     kinetic-energy cutoff     =      70.0000  Ry
     charge density cutoff     =     280.0000  Ry
     convergence threshold     =      1.0E-07
     mixing beta               =       0.5000
     number of iterations used =            8  plain     mixing
     Exchange-correlation      = SLA PZ NOGX NOGC ( 1  1  0  0 0 0)

     celldm(1)=   7.601398  celldm(2)=   0.000000  celldm(3)=   0.000000
     celldm(4)=   0.000000  celldm(5)=   0.000000  celldm(6)=   0.000000

     crystal axes: (cart. coord. in units of alat)
               a(1) = (   0.000000   0.707107   0.707107 )  
               a(2) = (   0.707107   0.000000   0.707107 )  
               a(3) = (   0.707107   0.707107   0.000000 )  

     reciprocal axes: (cart. coord. in units 2 pi/alat)
               b(1) = ( -0.707107  0.707107  0.707107 )  
               b(2) = (  0.707107 -0.707107  0.707107 )  
               b(3) = (  0.707107  0.707107 -0.707107 )  


     PseudoPot. # 1 for Ge read from file:
     /home/modeler/qe_pseudo/Ge.pz-bhs.UPF
     MD5 check sum: 4f8fee77de72fb640d24dcbf01bda005
     Pseudo is Norm-conserving, Zval =  4.0
     Generated by new atomic code, or converted to UPF format
     Using radial grid of  291 points,  2 beta functions with: 
                l(1) =   0
                l(2) =   1

     atomic species   valence    mass     pseudopotential
        Ge             4.00    72.63000     Ge( 1.00)

     24 Sym. Ops. (no inversion) found



   Cartesian axes

     site n.     atom                  positions (alat units)
         1           Ge  tau(   1) = (   0.0000000   0.0000000   0.0000000  )
         2           Ge  tau(   2) = (   0.3535524   0.3535524   0.3535524  )

     number of k points=     8
                       cart. coord. in units 2pi/alat
        k(    1) = (   0.0000000   0.0000000   0.0000000), wk =   0.0312500
        k(    2) = (   0.1767767   0.1767767  -0.1767767), wk =   0.2500000
        k(    3) = (  -0.3535534  -0.3535534   0.3535534), wk =   0.1250000
        k(    4) = (   0.3535534   0.0000000   0.0000000), wk =   0.1875000
        k(    5) = (  -0.1767767  -0.5303301   0.5303301), wk =   0.7500000
        k(    6) = (   0.0000000  -0.3535534   0.3535534), wk =   0.3750000
        k(    7) = (  -0.7071068   0.0000000   0.0000000), wk =   0.0937500
        k(    8) = (  -0.7071068   0.3535534   0.0000000), wk =   0.1875000

     Dense  grid:    24597 G-vectors     FFT dimensions: (  45,  45,  45)

     Estimated max dynamical RAM per process >      20.20 MB

     Initial potential from superposition of free atoms

     starting charge    6.99990, renormalised to    8.00000
     Starting wfcs are    8 randomized atomic wfcs

     total cpu time spent up to now is        0.3 secs

     Self-consistent Calculation

     iteration #  1     ecut=    70.00 Ry     beta= 0.50
     Davidson diagonalization with overlap
     ethr =  1.00E-02,  avg # of iterations =  1.8

     Threshold (ethr) on eigenvalues was too large:
     Diagonalizing with lowered threshold

     Davidson diagonalization with overlap
     ethr =  3.20E-04,  avg # of iterations =  2.8

     total cpu time spent up to now is        1.0 secs

     total energy              =     -15.99571059 Ry
     Harris-Foulkes estimate   =     -15.99940648 Ry
     estimated scf accuracy    <       0.02720560 Ry

     iteration #  2     ecut=    70.00 Ry     beta= 0.50
     Davidson diagonalization with overlap
     ethr =  3.40E-04,  avg # of iterations =  1.0

     total cpu time spent up to now is        1.3 secs

     total energy              =     -15.99464796 Ry
     Harris-Foulkes estimate   =     -15.99581251 Ry
     estimated scf accuracy    <       0.00646283 Ry

     iteration #  3     ecut=    70.00 Ry     beta= 0.50
     Davidson diagonalization with overlap
     ethr =  8.08E-05,  avg # of iterations =  1.0

     total cpu time spent up to now is        1.6 secs

     total energy              =     -15.99473259 Ry
     Harris-Foulkes estimate   =     -15.99473754 Ry
     estimated scf accuracy    <       0.00000950 Ry

     iteration #  4     ecut=    70.00 Ry     beta= 0.50
     Davidson diagonalization with overlap
     ethr =  1.19E-07,  avg # of iterations =  5.1

     total cpu time spent up to now is        2.2 secs

     total energy              =     -15.99475935 Ry
     Harris-Foulkes estimate   =     -15.99475939 Ry
     estimated scf accuracy    <       0.00000028 Ry

     iteration #  5     ecut=    70.00 Ry     beta= 0.50
     Davidson diagonalization with overlap
     ethr =  3.55E-09,  avg # of iterations =  2.0

     total cpu time spent up to now is        2.6 secs

     End of self-consistent calculation

          k = 0.0000 0.0000 0.0000 (  3119 PWs)   bands (ev):

    -7.1752   5.2702   5.2703   5.2703

          k = 0.1768 0.1768-0.1768 (  3065 PWs)   bands (ev):

    -6.4928   0.5853   4.4377   4.4377

          k =-0.3536-0.3536 0.3536 (  3100 PWs)   bands (ev):

    -5.2477  -2.2376   3.9457   3.9457

          k = 0.3536 0.0000 0.0000 (  3066 PWs)   bands (ev):

    -6.2440   0.5544   3.3199   3.3199

          k =-0.1768-0.5303 0.5303 (  3083 PWs)   bands (ev):

    -4.8558  -2.0687   1.6452   2.9747

          k = 0.0000-0.3536 0.3536 (  3082 PWs)   bands (ev):

    -5.4316  -1.2310   1.5092   3.8418

          k =-0.7071 0.0000 0.0000 (  3026 PWs)   bands (ev):

    -3.5349  -3.5347   2.3273   2.3273

          k =-0.7071 0.3536 0.0000 (  3052 PWs)   bands (ev):

    -3.4449  -3.4447   1.4790   1.4790

     highest occupied level (ev):     5.2703

!    total energy              =     -15.99475938 Ry
     Harris-Foulkes estimate   =     -15.99475939 Ry
     estimated scf accuracy    <       0.00000002 Ry

     The total energy is the sum of the following terms:

     one-electron contribution =       3.45797186 Ry
     hartree contribution      =       1.22714814 Ry
     xc contribution           =      -4.64476085 Ry
     ewald contribution        =     -16.03511853 Ry

     convergence has been achieved in   5 iterations

     Forces acting on atoms (cartesian axes, Ry/au):

     atom    1 type  1   force =     0.00000000    0.00000000    0.00000000
     atom    2 type  1   force =     0.00000000    0.00000000    0.00000000

     Total force =     0.000000     Total SCF correction =     0.000000


     Computing stress (Cartesian axis) and pressure

          total   stress  (Ry/bohr**3)                   (kbar)     P=  -25.25
  -0.00017167   0.00000000  -0.00000000        -25.25      0.00     -0.00
   0.00000000  -0.00017167  -0.00000000          0.00    -25.25     -0.00
  -0.00000000  -0.00000000  -0.00017167         -0.00     -0.00    -25.25


     init_run     :      0.28s CPU      0.30s WALL (       1 calls)
     electrons    :      2.25s CPU      2.26s WALL (       1 calls)
     forces       :      0.02s CPU      0.02s WALL (       1 calls)
     stress       :      0.12s CPU      0.13s WALL (       1 calls)

     Called by init_run:
     wfcinit      :      0.22s CPU      0.23s WALL (       1 calls)
     potinit      :      0.01s CPU      0.01s WALL (       1 calls)
     hinit0       :      0.03s CPU      0.03s WALL (       1 calls)

     Called by electrons:
     c_bands      :      1.82s CPU      1.82s WALL (       6 calls)
     sum_band     :      0.37s CPU      0.37s WALL (       6 calls)
     v_of_rho     :      0.05s CPU      0.05s WALL (       6 calls)
     mix_rho      :      0.02s CPU      0.03s WALL (       6 calls)

     Called by c_bands:
     init_us_2    :      0.06s CPU      0.06s WALL (     120 calls)
     cegterg      :      1.77s CPU      1.77s WALL (      48 calls)

     Called by sum_band:

     Called by *egterg:
     h_psi        :      1.83s CPU      1.85s WALL (     165 calls)
     g_psi        :      0.01s CPU      0.01s WALL (     109 calls)
     cdiaghg      :      0.01s CPU      0.01s WALL (     149 calls)

     Called by h_psi:
     h_psi:pot    :      1.83s CPU      1.84s WALL (     165 calls)
     h_psi:calbec :      0.04s CPU      0.04s WALL (     165 calls)
     vloc_psi     :      1.76s CPU      1.77s WALL (     165 calls)
     add_vuspsi   :      0.03s CPU      0.03s WALL (     165 calls)

     General routines
     calbec       :      0.04s CPU      0.04s WALL (     205 calls)
     fft          :      0.06s CPU      0.06s WALL (      23 calls)
     ffts         :      0.01s CPU      0.01s WALL (       6 calls)
     fftw         :      1.81s CPU      1.82s WALL (    1378 calls)

     Parallel routines

     PWSCF        :      2.71s CPU      2.74s WALL


   This run was terminated on:   2: 2:42   7Oct2020            

=------------------------------------------------------------------------------=
   JOB DONE.
=------------------------------------------------------------------------------=
