
     Program PWSCF v.6.4.1 starts on  7Oct2020 at  1:42:33 

     This program is part of the open-source Quantum ESPRESSO suite
     for quantum simulation of materials; please cite
         "P. Giannozzi et al., J. Phys.:Condens. Matter 21 395502 (2009);
         "P. Giannozzi et al., J. Phys.:Condens. Matter 29 465901 (2017);
          URL http://www.quantum-espresso.org", 
     in publications or presentations arising from this work. More details at
     http://www.quantum-espresso.org/quote

     Parallel version (MPI), running on     1 processors

     MPI processes distributed on     1 nodes
     Waiting for input...
     Reading input from standard input
Warning: card &IONS ignored
Warning: card / ignored
Warning: card &CELL ignored
Warning: card / ignored

     Current dimensions of program PWSCF are:
     Max number of different atomic species (ntypx) = 10
     Max number of k-points (npk) =  40000
     Max angular momentum in pseudopotentials (lmaxx) =  3

     Subspace diagonalization in iterative solution of the eigenvalue problem:
     a serial algorithm will be used

     Message from routine setup:
     DEPRECATED: symmetry with ibrav=0, use correct ibrav instead

     G-vector sticks info
     --------------------
     sticks:   dense  smooth     PW     G-vecs:    dense   smooth      PW
     Sum         121     121     43                  893      893     181



     bravais-lattice index     =            0
     lattice parameter (alat)  =       6.6812  a.u.
     unit-cell volume          =     210.8855 (a.u.)^3
     number of atoms/cell      =            2
     number of atomic types    =            1
     number of electrons       =         8.00
     number of Kohn-Sham states=            4
     kinetic-energy cutoff     =      10.0000  Ry
     charge density cutoff     =      40.0000  Ry
     convergence threshold     =      1.0E-07
     mixing beta               =       0.5000
     number of iterations used =            8  plain     mixing
     Exchange-correlation      = SLA PZ NOGX NOGC ( 1  1  0  0 0 0)

     celldm(1)=   6.681191  celldm(2)=   0.000000  celldm(3)=   0.000000
     celldm(4)=   0.000000  celldm(5)=   0.000000  celldm(6)=   0.000000

     crystal axes: (cart. coord. in units of alat)
               a(1) = (   0.000000   0.707107   0.707107 )  
               a(2) = (   0.707107   0.000000   0.707107 )  
               a(3) = (   0.707107   0.707107   0.000000 )  

     reciprocal axes: (cart. coord. in units 2 pi/alat)
               b(1) = ( -0.707107  0.707107  0.707107 )  
               b(2) = (  0.707107 -0.707107  0.707107 )  
               b(3) = (  0.707107  0.707107 -0.707107 )  


     PseudoPot. # 1 for Ge read from file:
     /home/modeler/qe_pseudo/Ge.pz-bhs.UPF
     MD5 check sum: 4f8fee77de72fb640d24dcbf01bda005
     Pseudo is Norm-conserving, Zval =  4.0
     Generated by new atomic code, or converted to UPF format
     Using radial grid of  291 points,  2 beta functions with: 
                l(1) =   0
                l(2) =   1

     atomic species   valence    mass     pseudopotential
        Ge             4.00    72.63000     Ge( 1.00)

      4 Sym. Ops. (no inversion) found



   Cartesian axes

     site n.     atom                  positions (alat units)
         1           Ge  tau(   1) = (   0.0000000   0.0000000   0.0707107  )
         2           Ge  tau(   2) = (   0.3535534   0.3535534   0.3535534  )

     number of k points=     8
                       cart. coord. in units 2pi/alat
        k(    1) = (   0.0000000   0.0000000   0.0000000), wk =   0.0740741
        k(    2) = (   0.2357023   0.2357023  -0.2357023), wk =   0.2962963
        k(    3) = (   0.4714045   0.0000000   0.0000000), wk =   0.2962963
        k(    4) = (  -0.0000000  -0.4714045   0.4714045), wk =   0.5925926
        k(    5) = (   0.2357023  -0.2357023  -0.2357023), wk =   0.2962963
        k(    6) = (   0.0000000   0.0000000   0.4714045), wk =   0.1481481
        k(    7) = (   0.4714045   0.4714045  -0.0000000), wk =   0.1481481
        k(    8) = (  -0.4714045   0.4714045   0.0000000), wk =   0.1481481

     Dense  grid:      893 G-vectors     FFT dimensions: (  15,  15,  15)

     Estimated max dynamical RAM per process >       0.79 MB

     Initial potential from superposition of free atoms

     starting charge    6.99990, renormalised to    8.00000
     Starting wfcs are    8 randomized atomic wfcs

     total cpu time spent up to now is        0.0 secs

     Self-consistent Calculation

     iteration #  1     ecut=    10.00 Ry     beta= 0.50
     Davidson diagonalization with overlap
     ethr =  1.00E-02,  avg # of iterations =  1.6

     Threshold (ethr) on eigenvalues was too large:
     Diagonalizing with lowered threshold

     Davidson diagonalization with overlap
     ethr =  3.76E-04,  avg # of iterations =  3.2

     total cpu time spent up to now is        0.1 secs

     total energy              =     -15.73616287 Ry
     Harris-Foulkes estimate   =     -15.74151337 Ry
     estimated scf accuracy    <       0.03698835 Ry

     iteration #  2     ecut=    10.00 Ry     beta= 0.50
     Davidson diagonalization with overlap
     ethr =  4.62E-04,  avg # of iterations =  1.0

     total cpu time spent up to now is        0.1 secs

     total energy              =     -15.73528589 Ry
     Harris-Foulkes estimate   =     -15.73655309 Ry
     estimated scf accuracy    <       0.00793765 Ry

     iteration #  3     ecut=    10.00 Ry     beta= 0.50
     Davidson diagonalization with overlap
     ethr =  9.92E-05,  avg # of iterations =  1.0

     total cpu time spent up to now is        0.1 secs

     total energy              =     -15.73550970 Ry
     Harris-Foulkes estimate   =     -15.73553398 Ry
     estimated scf accuracy    <       0.00006264 Ry

     iteration #  4     ecut=    10.00 Ry     beta= 0.50
     Davidson diagonalization with overlap
     ethr =  7.83E-07,  avg # of iterations =  3.8

     total cpu time spent up to now is        0.1 secs

     total energy              =     -15.73557371 Ry
     Harris-Foulkes estimate   =     -15.73557552 Ry
     estimated scf accuracy    <       0.00000490 Ry

     iteration #  5     ecut=    10.00 Ry     beta= 0.50
     Davidson diagonalization with overlap
     ethr =  6.12E-08,  avg # of iterations =  1.4

     total cpu time spent up to now is        0.1 secs

     total energy              =     -15.73557380 Ry
     Harris-Foulkes estimate   =     -15.73557397 Ry
     estimated scf accuracy    <       0.00000077 Ry

     iteration #  6     ecut=    10.00 Ry     beta= 0.50
     Davidson diagonalization with overlap
     ethr =  9.63E-09,  avg # of iterations =  2.4

     total cpu time spent up to now is        0.1 secs

     End of self-consistent calculation

          k = 0.0000 0.0000 0.0000 (   113 PWs)   bands (ev):

    -5.6997   8.5658  10.3488  11.6370

          k = 0.2357 0.2357-0.2357 (   111 PWs)   bands (ev):

    -3.9891   1.9853   7.9981   9.2420

          k = 0.4714 0.0000 0.0000 (   113 PWs)   bands (ev):

    -3.4577   2.9420   6.3629   6.5656

          k =-0.0000-0.4714 0.4714 (   116 PWs)   bands (ev):

    -1.7677   0.7665   3.3398   6.8816

          k = 0.2357-0.2357-0.2357 (   111 PWs)   bands (ev):

    -4.1532   2.9247   7.4229   9.2693

          k = 0.0000 0.0000 0.4714 (   113 PWs)   bands (ev):

    -3.4846   3.4272   5.6655   6.6279

          k = 0.4714 0.4714-0.0000 (   116 PWs)   bands (ev):

    -1.1858  -0.1264   3.1857   7.1953

          k =-0.4714 0.4714 0.0000 (   116 PWs)   bands (ev):

    -2.1697   1.7795   3.5316   6.0399

     highest occupied level (ev):    11.6370

!    total energy              =     -15.73557385 Ry
     Harris-Foulkes estimate   =     -15.73557388 Ry
     estimated scf accuracy    <       0.00000007 Ry

     The total energy is the sum of the following terms:

     one-electron contribution =       6.59945878 Ry
     hartree contribution      =       0.91190680 Ry
     xc contribution           =      -5.07213010 Ry
     ewald contribution        =     -18.17480933 Ry

     convergence has been achieved in   6 iterations

     Forces acting on atoms (cartesian axes, Ry/au):

     atom    1 type  1   force =     0.00000000    0.00000000   -0.23168485
     atom    2 type  1   force =     0.00000000    0.00000000    0.23168485

     Total force =     0.327652     Total SCF correction =     0.000043


     Computing stress (Cartesian axis) and pressure

          total   stress  (Ry/bohr**3)                   (kbar)     P=  571.74
   0.00416591   0.00227714   0.00000000        612.83    334.98      0.00
   0.00227714   0.00416591   0.00000000        334.98    612.83      0.00
   0.00000000   0.00000000   0.00332803          0.00      0.00    489.57


     init_run     :      0.01s CPU      0.01s WALL (       1 calls)
     electrons    :      0.05s CPU      0.06s WALL (       1 calls)
     forces       :      0.00s CPU      0.00s WALL (       1 calls)
     stress       :      0.00s CPU      0.00s WALL (       1 calls)

     Called by init_run:
     wfcinit      :      0.00s CPU      0.00s WALL (       1 calls)
     potinit      :      0.00s CPU      0.00s WALL (       1 calls)
     hinit0       :      0.01s CPU      0.01s WALL (       1 calls)

     Called by electrons:
     c_bands      :      0.04s CPU      0.04s WALL (       7 calls)
     sum_band     :      0.01s CPU      0.01s WALL (       7 calls)
     v_of_rho     :      0.00s CPU      0.00s WALL (       7 calls)
     mix_rho      :      0.00s CPU      0.00s WALL (       7 calls)

     Called by c_bands:
     init_us_2    :      0.00s CPU      0.00s WALL (     136 calls)
     cegterg      :      0.04s CPU      0.04s WALL (      56 calls)

     Called by sum_band:

     Called by *egterg:
     h_psi        :      0.03s CPU      0.03s WALL (     179 calls)
     g_psi        :      0.00s CPU      0.00s WALL (     115 calls)
     cdiaghg      :      0.01s CPU      0.01s WALL (     163 calls)

     Called by h_psi:
     h_psi:pot    :      0.03s CPU      0.03s WALL (     179 calls)
     h_psi:calbec :      0.00s CPU      0.00s WALL (     179 calls)
     vloc_psi     :      0.02s CPU      0.03s WALL (     179 calls)
     add_vuspsi   :      0.00s CPU      0.00s WALL (     179 calls)

     General routines
     calbec       :      0.00s CPU      0.00s WALL (     219 calls)
     fft          :      0.00s CPU      0.00s WALL (      26 calls)
     ffts         :      0.00s CPU      0.00s WALL (       7 calls)
     fftw         :      0.02s CPU      0.02s WALL (    1464 calls)

     Parallel routines

     PWSCF        :      0.09s CPU      0.10s WALL


   This run was terminated on:   1:42:33   7Oct2020            

=------------------------------------------------------------------------------=
   JOB DONE.
=------------------------------------------------------------------------------=
