
     Program PWSCF v.6.4.1 starts on  7Oct2020 at  2: 2:36 

     This program is part of the open-source Quantum ESPRESSO suite
     for quantum simulation of materials; please cite
         "P. Giannozzi et al., J. Phys.:Condens. Matter 21 395502 (2009);
         "P. Giannozzi et al., J. Phys.:Condens. Matter 29 465901 (2017);
          URL http://www.quantum-espresso.org", 
     in publications or presentations arising from this work. More details at
     http://www.quantum-espresso.org/quote

     Parallel version (MPI), running on     1 processors

     MPI processes distributed on     1 nodes
     Waiting for input...
     Reading input from standard input
Warning: card &IONS ignored
Warning: card / ignored
Warning: card &CELL ignored
Warning: card / ignored

     Current dimensions of program PWSCF are:
     Max number of different atomic species (ntypx) = 10
     Max number of k-points (npk) =  40000
     Max angular momentum in pseudopotentials (lmaxx) =  3

     Subspace diagonalization in iterative solution of the eigenvalue problem:
     a serial algorithm will be used

     Message from routine setup:
     DEPRECATED: symmetry with ibrav=0, use correct ibrav instead

     G-vector sticks info
     --------------------
     sticks:   dense  smooth     PW     G-vecs:    dense   smooth      PW
     Sum        1111    1111    313                24309    24309    3839



     bravais-lattice index     =            0
     lattice parameter (alat)  =       7.5660  a.u.
     unit-cell volume          =     306.2608 (a.u.)^3
     number of atoms/cell      =            2
     number of atomic types    =            1
     number of electrons       =         8.00
     number of Kohn-Sham states=            4
     kinetic-energy cutoff     =      70.0000  Ry
     charge density cutoff     =     280.0000  Ry
     convergence threshold     =      1.0E-07
     mixing beta               =       0.5000
     number of iterations used =            8  plain     mixing
     Exchange-correlation      = SLA PZ NOGX NOGC ( 1  1  0  0 0 0)

     celldm(1)=   7.566043  celldm(2)=   0.000000  celldm(3)=   0.000000
     celldm(4)=   0.000000  celldm(5)=   0.000000  celldm(6)=   0.000000

     crystal axes: (cart. coord. in units of alat)
               a(1) = (   0.000000   0.707107   0.707107 )  
               a(2) = (   0.707107   0.000000   0.707107 )  
               a(3) = (   0.707107   0.707107   0.000000 )  

     reciprocal axes: (cart. coord. in units 2 pi/alat)
               b(1) = ( -0.707107  0.707107  0.707107 )  
               b(2) = (  0.707107 -0.707107  0.707107 )  
               b(3) = (  0.707107  0.707107 -0.707107 )  


     PseudoPot. # 1 for Ge read from file:
     /home/modeler/qe_pseudo/Ge.pz-bhs.UPF
     MD5 check sum: 4f8fee77de72fb640d24dcbf01bda005
     Pseudo is Norm-conserving, Zval =  4.0
     Generated by new atomic code, or converted to UPF format
     Using radial grid of  291 points,  2 beta functions with: 
                l(1) =   0
                l(2) =   1

     atomic species   valence    mass     pseudopotential
        Ge             4.00    72.63000     Ge( 1.00)

     48 Sym. Ops., with inversion, found (24 have fractional translation)



   Cartesian axes

     site n.     atom                  positions (alat units)
         1           Ge  tau(   1) = (   0.0000000   0.0000000   0.0000000  )
         2           Ge  tau(   2) = (   0.3535536   0.3535536   0.3535536  )

     number of k points=     8
                       cart. coord. in units 2pi/alat
        k(    1) = (   0.0000000   0.0000000   0.0000000), wk =   0.0312500
        k(    2) = (   0.1767767   0.1767767  -0.1767767), wk =   0.2500000
        k(    3) = (  -0.3535534  -0.3535534   0.3535534), wk =   0.1250000
        k(    4) = (   0.3535534   0.0000000   0.0000000), wk =   0.1875000
        k(    5) = (  -0.1767767  -0.5303301   0.5303301), wk =   0.7500000
        k(    6) = (   0.0000000  -0.3535534   0.3535534), wk =   0.3750000
        k(    7) = (  -0.7071068   0.0000000   0.0000000), wk =   0.0937500
        k(    8) = (  -0.7071068   0.3535534   0.0000000), wk =   0.1875000

     Dense  grid:    24309 G-vectors     FFT dimensions: (  48,  48,  48)

     Estimated max dynamical RAM per process >      21.36 MB

     Initial potential from superposition of free atoms

     starting charge    6.99990, renormalised to    8.00000
     Starting wfcs are    8 randomized atomic wfcs

     total cpu time spent up to now is        0.3 secs

     Self-consistent Calculation

     iteration #  1     ecut=    70.00 Ry     beta= 0.50
     Davidson diagonalization with overlap
     ethr =  1.00E-02,  avg # of iterations =  1.6

     Threshold (ethr) on eigenvalues was too large:
     Diagonalizing with lowered threshold

     Davidson diagonalization with overlap
     ethr =  3.10E-04,  avg # of iterations =  2.6

     total cpu time spent up to now is        1.0 secs

     total energy              =     -15.99632196 Ry
     Harris-Foulkes estimate   =     -15.99987601 Ry
     estimated scf accuracy    <       0.02702344 Ry

     iteration #  2     ecut=    70.00 Ry     beta= 0.50
     Davidson diagonalization with overlap
     ethr =  3.38E-04,  avg # of iterations =  1.0

     total cpu time spent up to now is        1.2 secs

     total energy              =     -15.99527139 Ry
     Harris-Foulkes estimate   =     -15.99640605 Ry
     estimated scf accuracy    <       0.00643568 Ry

     iteration #  3     ecut=    70.00 Ry     beta= 0.50
     Davidson diagonalization with overlap
     ethr =  8.04E-05,  avg # of iterations =  1.0

     total cpu time spent up to now is        1.5 secs

     total energy              =     -15.99534598 Ry
     Harris-Foulkes estimate   =     -15.99534947 Ry
     estimated scf accuracy    <       0.00000689 Ry

     iteration #  4     ecut=    70.00 Ry     beta= 0.50
     Davidson diagonalization with overlap
     ethr =  8.61E-08,  avg # of iterations =  4.1

     total cpu time spent up to now is        2.0 secs

     total energy              =     -15.99537260 Ry
     Harris-Foulkes estimate   =     -15.99537260 Ry
     estimated scf accuracy    <       0.00000024 Ry

     iteration #  5     ecut=    70.00 Ry     beta= 0.50
     Davidson diagonalization with overlap
     ethr =  2.97E-09,  avg # of iterations =  2.5

     total cpu time spent up to now is        2.4 secs

     End of self-consistent calculation

          k = 0.0000 0.0000 0.0000 (  3071 PWs)   bands (ev):

    -7.1314   5.4102   5.4102   5.4102

          k = 0.1768 0.1768-0.1768 (  3001 PWs)   bands (ev):

    -6.4404   0.7110   4.5646   4.5646

          k =-0.3536-0.3536 0.3536 (  3040 PWs)   bands (ev):

    -5.1742  -2.1572   4.0667   4.0667

          k = 0.3536 0.0000 0.0000 (  3042 PWs)   bands (ev):

    -6.1888   0.7029   3.4282   3.4282

          k =-0.1768-0.5303 0.5303 (  3022 PWs)   bands (ev):

    -4.7800  -1.9641   1.7310   3.0792

          k = 0.0000-0.3536 0.3536 (  3042 PWs)   bands (ev):

    -5.3644  -1.1144   1.5895   3.9601

          k =-0.7071 0.0000 0.0000 (  3026 PWs)   bands (ev):

    -3.4435  -3.4435   2.4224   2.4224

          k =-0.7071 0.3536 0.0000 (  3028 PWs)   bands (ev):

    -3.3495  -3.3495   1.5560   1.5560

     highest occupied level (ev):     5.4102

!    total energy              =     -15.99537262 Ry
     Harris-Foulkes estimate   =     -15.99537263 Ry
     estimated scf accuracy    <       0.00000003 Ry

     The total energy is the sum of the following terms:

     one-electron contribution =       3.55930062 Ry
     hartree contribution      =       1.21374256 Ry
     xc contribution           =      -4.65836682 Ry
     ewald contribution        =     -16.11004900 Ry

     convergence has been achieved in   5 iterations

     Forces acting on atoms (cartesian axes, Ry/au):

     atom    1 type  1   force =    -0.00000000   -0.00000000    0.00000000
     atom    2 type  1   force =    -0.00000000   -0.00000000    0.00000000

     Total force =     0.000000     Total SCF correction =     0.000000


     Computing stress (Cartesian axis) and pressure

          total   stress  (Ry/bohr**3)                   (kbar)     P=  -16.57
  -0.00011265   0.00000000   0.00000000        -16.57      0.00      0.00
   0.00000000  -0.00011265  -0.00000000          0.00    -16.57     -0.00
  -0.00000000  -0.00000000  -0.00011265         -0.00     -0.00    -16.57


     init_run     :      0.26s CPU      0.28s WALL (       1 calls)
     electrons    :      2.05s CPU      2.06s WALL (       1 calls)
     forces       :      0.02s CPU      0.02s WALL (       1 calls)
     stress       :      0.11s CPU      0.12s WALL (       1 calls)

     Called by init_run:
     wfcinit      :      0.21s CPU      0.21s WALL (       1 calls)
     potinit      :      0.01s CPU      0.02s WALL (       1 calls)
     hinit0       :      0.03s CPU      0.03s WALL (       1 calls)

     Called by electrons:
     c_bands      :      1.61s CPU      1.62s WALL (       6 calls)
     sum_band     :      0.36s CPU      0.36s WALL (       6 calls)
     v_of_rho     :      0.05s CPU      0.05s WALL (       6 calls)
     mix_rho      :      0.03s CPU      0.03s WALL (       6 calls)

     Called by c_bands:
     init_us_2    :      0.06s CPU      0.06s WALL (     120 calls)
     cegterg      :      1.57s CPU      1.57s WALL (      48 calls)

     Called by sum_band:

     Called by *egterg:
     h_psi        :      1.62s CPU      1.63s WALL (     159 calls)
     g_psi        :      0.01s CPU      0.01s WALL (     103 calls)
     cdiaghg      :      0.01s CPU      0.01s WALL (     143 calls)

     Called by h_psi:
     h_psi:pot    :      1.62s CPU      1.63s WALL (     159 calls)
     h_psi:calbec :      0.04s CPU      0.04s WALL (     159 calls)
     vloc_psi     :      1.55s CPU      1.56s WALL (     159 calls)
     add_vuspsi   :      0.03s CPU      0.03s WALL (     159 calls)

     General routines
     calbec       :      0.04s CPU      0.04s WALL (     199 calls)
     fft          :      0.05s CPU      0.05s WALL (      23 calls)
     ffts         :      0.01s CPU      0.01s WALL (       6 calls)
     fftw         :      1.55s CPU      1.55s WALL (    1368 calls)

     Parallel routines

     PWSCF        :      2.47s CPU      2.51s WALL


   This run was terminated on:   2: 2:39   7Oct2020            

=------------------------------------------------------------------------------=
   JOB DONE.
=------------------------------------------------------------------------------=
