
     Program PWSCF v.6.4.1 starts on  2Oct2020 at  0:29:48 

     This program is part of the open-source Quantum ESPRESSO suite
     for quantum simulation of materials; please cite
         "P. Giannozzi et al., J. Phys.:Condens. Matter 21 395502 (2009);
         "P. Giannozzi et al., J. Phys.:Condens. Matter 29 465901 (2017);
          URL http://www.quantum-espresso.org", 
     in publications or presentations arising from this work. More details at
     http://www.quantum-espresso.org/quote

     Parallel version (MPI), running on     1 processors

     MPI processes distributed on     1 nodes
     Waiting for input...
     Reading input from standard input
Warning: card &IONS ignored
Warning: card / ignored
Warning: card &CELL ignored
Warning: card / ignored

     Current dimensions of program PWSCF are:
     Max number of different atomic species (ntypx) = 10
     Max number of k-points (npk) =  40000
     Max angular momentum in pseudopotentials (lmaxx) =  3

     Subspace diagonalization in iterative solution of the eigenvalue problem:
     a serial algorithm will be used

     Message from routine setup:
     DEPRECATED: symmetry with ibrav=0, use correct ibrav instead

     G-vector sticks info
     --------------------
     sticks:   dense  smooth     PW     G-vecs:    dense   smooth      PW
     Sum         121     121     55                  893      893     259



     bravais-lattice index     =            0
     lattice parameter (alat)  =       6.6812  a.u.
     unit-cell volume          =     210.8855 (a.u.)^3
     number of atoms/cell      =            2
     number of atomic types    =            1
     number of electrons       =         8.00
     number of Kohn-Sham states=            4
     kinetic-energy cutoff     =      10.0000  Ry
     charge density cutoff     =      40.0000  Ry
     convergence threshold     =      1.0E-07
     mixing beta               =       0.5000
     number of iterations used =            8  plain     mixing
     Exchange-correlation      = SLA PZ NOGX NOGC ( 1  1  0  0 0 0)

     celldm(1)=   6.681191  celldm(2)=   0.000000  celldm(3)=   0.000000
     celldm(4)=   0.000000  celldm(5)=   0.000000  celldm(6)=   0.000000

     crystal axes: (cart. coord. in units of alat)
               a(1) = (   0.000000   0.707107   0.707107 )  
               a(2) = (   0.707107   0.000000   0.707107 )  
               a(3) = (   0.707107   0.707107   0.000000 )  

     reciprocal axes: (cart. coord. in units 2 pi/alat)
               b(1) = ( -0.707107  0.707107  0.707107 )  
               b(2) = (  0.707107 -0.707107  0.707107 )  
               b(3) = (  0.707107  0.707107 -0.707107 )  


     PseudoPot. # 1 for Ge read from file:
     /home/modeler/qe_pseudo/Ge.pz-bhs.UPF
     MD5 check sum: 4f8fee77de72fb640d24dcbf01bda005
     Pseudo is Norm-conserving, Zval =  4.0
     Generated by new atomic code, or converted to UPF format
     Using radial grid of  291 points,  2 beta functions with: 
                l(1) =   0
                l(2) =   1

     atomic species   valence    mass     pseudopotential
        Ge             4.00    72.63000     Ge( 1.00)

     48 Sym. Ops., with inversion, found (24 have fractional translation)



   Cartesian axes

     site n.     atom                  positions (alat units)
         1           Ge  tau(   1) = (   0.0000000   0.0000000   0.0000000  )
         2           Ge  tau(   2) = (   0.3535534   0.3535534   0.3535534  )

     number of k points=    35
                       cart. coord. in units 2pi/alat
        k(    1) = (   0.0000000   0.0000000   0.0000000), wk =   0.0027435
        k(    2) = (   0.0785674   0.0785674  -0.0785674), wk =   0.0219479
        k(    3) = (   0.1571348   0.1571348  -0.1571348), wk =   0.0219479
        k(    4) = (   0.2357023   0.2357023  -0.2357023), wk =   0.0219479
        k(    5) = (   0.3142697   0.3142697  -0.3142697), wk =   0.0219479
        k(    6) = (   0.1571348   0.0000000   0.0000000), wk =   0.0164609
        k(    7) = (   0.2357023   0.0785674  -0.0785674), wk =   0.0658436
        k(    8) = (   0.3142697   0.1571348  -0.1571348), wk =   0.0658436
        k(    9) = (   0.3928371   0.2357023  -0.2357023), wk =   0.0658436
        k(   10) = (  -0.2357023  -0.3928371   0.3928371), wk =   0.0658436
        k(   11) = (  -0.1571348  -0.3142697   0.3142697), wk =   0.0658436
        k(   12) = (  -0.0785674  -0.2357023   0.2357023), wk =   0.0658436
        k(   13) = (  -0.0000000  -0.1571348   0.1571348), wk =   0.0329218
        k(   14) = (   0.3142697   0.0000000   0.0000000), wk =   0.0164609
        k(   15) = (   0.3928371   0.0785674  -0.0785674), wk =   0.0658436
        k(   16) = (   0.4714045   0.1571348  -0.1571348), wk =   0.0658436
        k(   17) = (  -0.1571348  -0.4714045   0.4714045), wk =   0.0658436
        k(   18) = (  -0.0785674  -0.3928371   0.3928371), wk =   0.0658436
        k(   19) = (   0.0000000  -0.3142697   0.3142697), wk =   0.0329218
        k(   20) = (   0.4714045   0.0000000   0.0000000), wk =   0.0164609
        k(   21) = (   0.5499719   0.0785674  -0.0785674), wk =   0.0658436
        k(   22) = (  -0.0785674  -0.5499719   0.5499719), wk =   0.0658436
        k(   23) = (  -0.0000000  -0.4714045   0.4714045), wk =   0.0329218
        k(   24) = (   0.6285394   0.0000000   0.0000000), wk =   0.0164609
        k(   25) = (   0.0000000  -0.6285394   0.6285394), wk =   0.0329218
        k(   26) = (   0.3142697   0.1571348   0.0000000), wk =   0.0658436
        k(   27) = (   0.3928371   0.2357023  -0.0785674), wk =   0.1316872
        k(   28) = (  -0.2357023  -0.3928371   0.5499719), wk =   0.1316872
        k(   29) = (   0.4714045   0.1571348   0.0000000), wk =   0.0658436
        k(   30) = (  -0.1571348  -0.4714045   0.6285394), wk =   0.1316872
        k(   31) = (  -0.0785674  -0.3928371   0.5499719), wk =   0.1316872
        k(   32) = (   0.0000000  -0.3142697   0.4714045), wk =   0.0658436
        k(   33) = (  -0.0785674  -0.5499719   0.7071068), wk =   0.0658436
        k(   34) = (  -0.0000000  -0.4714045   0.6285394), wk =   0.0658436
        k(   35) = (  -0.0785674  -0.3928371   0.7071068), wk =   0.0658436

     Dense  grid:      893 G-vectors     FFT dimensions: (  16,  16,  16)

     Estimated max dynamical RAM per process >       1.03 MB

     Initial potential from superposition of free atoms

     starting charge    6.99990, renormalised to    8.00000
     Starting wfcs are    8 randomized atomic wfcs

     total cpu time spent up to now is        0.1 secs

     Self-consistent Calculation

     iteration #  1     ecut=    10.00 Ry     beta= 0.50
     Davidson diagonalization with overlap
     ethr =  1.00E-02,  avg # of iterations =  1.6

     Threshold (ethr) on eigenvalues was too large:
     Diagonalizing with lowered threshold

     Davidson diagonalization with overlap
     ethr =  2.87E-04,  avg # of iterations =  2.6

     total cpu time spent up to now is        0.1 secs

     total energy              =     -15.86109020 Ry
     Harris-Foulkes estimate   =     -15.86354260 Ry
     estimated scf accuracy    <       0.02627773 Ry

     iteration #  2     ecut=    10.00 Ry     beta= 0.50
     Davidson diagonalization with overlap
     ethr =  3.28E-04,  avg # of iterations =  1.0

     total cpu time spent up to now is        0.2 secs

     total energy              =     -15.86060592 Ry
     Harris-Foulkes estimate   =     -15.86128661 Ry
     estimated scf accuracy    <       0.00592617 Ry

     iteration #  3     ecut=    10.00 Ry     beta= 0.50
     Davidson diagonalization with overlap
     ethr =  7.41E-05,  avg # of iterations =  1.0

     total cpu time spent up to now is        0.2 secs

     total energy              =     -15.86070277 Ry
     Harris-Foulkes estimate   =     -15.86071897 Ry
     estimated scf accuracy    <       0.00003403 Ry

     iteration #  4     ecut=    10.00 Ry     beta= 0.50
     Davidson diagonalization with overlap
     ethr =  4.25E-07,  avg # of iterations =  3.1

     total cpu time spent up to now is        0.2 secs

     End of self-consistent calculation

          k = 0.0000 0.0000 0.0000 (   113 PWs)   bands (ev):

    -5.7007   9.9673   9.9673   9.9673

          k = 0.0786 0.0786-0.0786 (   116 PWs)   bands (ev):

    -5.5198   7.9975   9.5434   9.5434

          k = 0.1571 0.1571-0.1571 (   116 PWs)   bands (ev):

    -4.9749   5.0636   8.8590   8.8590

          k = 0.2357 0.2357-0.2357 (   111 PWs)   bands (ev):

    -4.0639   2.4229   8.3385   8.3385

          k = 0.3143 0.3143-0.3143 (   114 PWs)   bands (ev):

    -3.0449   0.4794   8.0711   8.0711

          k = 0.1571 0.0000 0.0000 (   117 PWs)   bands (ev):

    -5.4590   8.5504   8.8037   8.8037

          k = 0.2357 0.0786-0.0786 (   119 PWs)   bands (ev):

    -5.0314   6.0160   8.0701   8.3928

          k = 0.3143 0.1571-0.1571 (   110 PWs)   bands (ev):

    -4.2278   3.3229   7.6176   7.6472

          k = 0.3928 0.2357-0.2357 (   113 PWs)   bands (ev):

    -3.1841   1.1103   6.9860   7.5003

          k =-0.2357-0.3928 0.3928 (   112 PWs)   bands (ev):

    -2.6732   0.3043   6.5936   7.7262

          k =-0.1571-0.3143 0.3143 (   113 PWs)   bands (ev):

    -3.5440   1.7748   6.5163   8.2363

          k =-0.0786-0.2357 0.2357 (   116 PWs)   bands (ev):

    -4.5374   4.1906   6.8127   8.9510

          k =-0.0000-0.1571 0.1571 (   117 PWs)   bands (ev):

    -5.2147   6.7114   7.7028   9.5979

          k = 0.3143 0.0000 0.0000 (   121 PWs)   bands (ev):

    -4.7236   5.9433   7.2773   7.2773

          k = 0.3928 0.0786-0.0786 (   117 PWs)   bands (ev):

    -4.0296   3.9900   6.3874   6.7707

          k = 0.4714 0.1571-0.1571 (   111 PWs)   bands (ev):

    -3.0201   1.9006   5.3568   6.6301

          k =-0.1571-0.4714 0.4714 (   112 PWs)   bands (ev):

    -2.1393   0.5501   4.6201   6.8661

          k =-0.0786-0.3928 0.3928 (   111 PWs)   bands (ev):

    -2.6974   1.3812   4.3288   7.4493

          k = 0.0000-0.3143 0.3143 (   113 PWs)   bands (ev):

    -3.7376   3.1346   4.8016   8.2529

          k = 0.4714 0.0000 0.0000 (   113 PWs)   bands (ev):

    -3.4487   3.1644   6.1785   6.1785

          k = 0.5500 0.0786-0.0786 (   111 PWs)   bands (ev):

    -2.5159   1.7260   5.0949   5.9476

          k =-0.0786-0.5500 0.5500 (   110 PWs)   bands (ev):

    -1.4694   0.5011   3.7919   6.1075

          k =-0.0000-0.4714 0.4714 (   116 PWs)   bands (ev):

    -1.6848   0.7302   3.2699   6.6355

          k = 0.6285 0.0000 0.0000 (   116 PWs)   bands (ev):

    -1.6795   0.5534   5.6113   5.6113

          k = 0.0000-0.6285 0.6285 (   114 PWs)   bands (ev):

    -0.6599  -0.4621   4.6906   5.6667

          k = 0.3143 0.1571 0.0000 (   116 PWs)   bands (ev):

    -4.4696   4.7350   6.2217   8.1055

          k = 0.3928 0.2357-0.0786 (   110 PWs)   bands (ev):

    -3.5597   2.6244   5.4323   7.4023

          k =-0.2357-0.3928 0.5500 (   115 PWs)   bands (ev):

    -2.5311   0.7954   5.2120   6.8842

          k = 0.4714 0.1571 0.0000 (   114 PWs)   bands (ev):

    -3.2217   2.7204   5.1977   6.1933

          k =-0.1571-0.4714 0.6285 (   108 PWs)   bands (ev):

    -2.1512   1.2320   4.2740   5.7289

          k =-0.0786-0.3928 0.5500 (   111 PWs)   bands (ev):

    -1.6512   0.6119   3.7206   5.8982

          k = 0.0000-0.3143 0.4714 (   112 PWs)   bands (ev):

    -2.5822   1.7242   3.9012   6.5560

          k =-0.0786-0.5500 0.7071 (   108 PWs)   bands (ev):

    -1.5010   0.5669   4.7751   5.0587

          k =-0.0000-0.4714 0.6285 (   109 PWs)   bands (ev):

    -0.7805  -0.0557   3.7045   5.1943

          k =-0.0786-0.3928 0.7071 (   108 PWs)   bands (ev):

    -1.1045   0.3847   3.7713   4.6742

     highest occupied level (ev):     9.9673

!    total energy              =     -15.86072954 Ry
     Harris-Foulkes estimate   =     -15.86072953 Ry
     estimated scf accuracy    <       0.00000004 Ry

     The total energy is the sum of the following terms:

     one-electron contribution =       6.57977373 Ry
     hartree contribution      =       0.85039602 Ry
     xc contribution           =      -5.04724647 Ry
     ewald contribution        =     -18.24365282 Ry

     convergence has been achieved in   4 iterations

     Forces acting on atoms (cartesian axes, Ry/au):

     atom    1 type  1   force =     0.00000000   -0.00000000    0.00000000
     atom    2 type  1   force =     0.00000000    0.00000000    0.00000000

     Total force =     0.000000     Total SCF correction =     0.000000


     Computing stress (Cartesian axis) and pressure

          total   stress  (Ry/bohr**3)                   (kbar)     P=  479.49
   0.00325954   0.00000000   0.00000000        479.49      0.00      0.00
   0.00000000   0.00325954   0.00000000          0.00    479.49      0.00
   0.00000000   0.00000000   0.00325954          0.00      0.00    479.49


     init_run     :      0.03s CPU      0.03s WALL (       1 calls)
     electrons    :      0.17s CPU      0.18s WALL (       1 calls)
     forces       :      0.00s CPU      0.00s WALL (       1 calls)
     stress       :      0.01s CPU      0.01s WALL (       1 calls)

     Called by init_run:
     wfcinit      :      0.02s CPU      0.02s WALL (       1 calls)
     potinit      :      0.00s CPU      0.00s WALL (       1 calls)
     hinit0       :      0.01s CPU      0.01s WALL (       1 calls)

     Called by electrons:
     c_bands      :      0.14s CPU      0.15s WALL (       5 calls)
     sum_band     :      0.03s CPU      0.03s WALL (       5 calls)
     v_of_rho     :      0.00s CPU      0.00s WALL (       5 calls)
     mix_rho      :      0.00s CPU      0.00s WALL (       5 calls)

     Called by c_bands:
     init_us_2    :      0.01s CPU      0.01s WALL (     455 calls)
     cegterg      :      0.13s CPU      0.14s WALL (     175 calls)

     Called by sum_band:

     Called by *egterg:
     h_psi        :      0.11s CPU      0.12s WALL (     536 calls)
     g_psi        :      0.00s CPU      0.00s WALL (     326 calls)
     cdiaghg      :      0.02s CPU      0.02s WALL (     466 calls)

     Called by h_psi:
     h_psi:pot    :      0.11s CPU      0.12s WALL (     536 calls)
     h_psi:calbec :      0.01s CPU      0.01s WALL (     536 calls)
     vloc_psi     :      0.10s CPU      0.11s WALL (     536 calls)
     add_vuspsi   :      0.00s CPU      0.00s WALL (     536 calls)

     General routines
     calbec       :      0.01s CPU      0.01s WALL (     711 calls)
     fft          :      0.00s CPU      0.00s WALL (      20 calls)
     ffts         :      0.00s CPU      0.00s WALL (       5 calls)
     fftw         :      0.08s CPU      0.09s WALL (    4748 calls)

     Parallel routines

     PWSCF        :      0.25s CPU      0.26s WALL


   This run was terminated on:   0:29:49   2Oct2020            

=------------------------------------------------------------------------------=
   JOB DONE.
=------------------------------------------------------------------------------=
