
     Program PWSCF v.6.4.1 starts on  7Oct2020 at  3:49:38 

     This program is part of the open-source Quantum ESPRESSO suite
     for quantum simulation of materials; please cite
         "P. Giannozzi et al., J. Phys.:Condens. Matter 21 395502 (2009);
         "P. Giannozzi et al., J. Phys.:Condens. Matter 29 465901 (2017);
          URL http://www.quantum-espresso.org", 
     in publications or presentations arising from this work. More details at
     http://www.quantum-espresso.org/quote

     Parallel version (MPI), running on     1 processors

     MPI processes distributed on     1 nodes
     Waiting for input...
     Reading input from standard input
Warning: card &IONS ignored
Warning: card / ignored
Warning: card &CELL ignored
Warning: card / ignored

     Current dimensions of program PWSCF are:
     Max number of different atomic species (ntypx) = 10
     Max number of k-points (npk) =  40000
     Max angular momentum in pseudopotentials (lmaxx) =  3

     Subspace diagonalization in iterative solution of the eigenvalue problem:
     a serial algorithm will be used

     Message from routine setup:
     DEPRECATED: symmetry with ibrav=0, use correct ibrav instead

     G-vector sticks info
     --------------------
     sticks:   dense  smooth     PW     G-vecs:    dense   smooth      PW
     Sum         583     583    187                 9185     9185    1591



     bravais-lattice index     =            0
     lattice parameter (alat)  =       7.2157  a.u.
     unit-cell volume          =     265.6549 (a.u.)^3
     number of atoms/cell      =            2
     number of atomic types    =            1
     number of electrons       =         8.00
     number of Kohn-Sham states=            4
     kinetic-energy cutoff     =      40.0000  Ry
     charge density cutoff     =     160.0000  Ry
     convergence threshold     =      1.0E-07
     mixing beta               =       0.5000
     number of iterations used =            8  plain     mixing
     Exchange-correlation      = SLA PZ NOGX NOGC ( 1  1  0  0 0 0)

     celldm(1)=   7.215686  celldm(2)=   0.000000  celldm(3)=   0.000000
     celldm(4)=   0.000000  celldm(5)=   0.000000  celldm(6)=   0.000000

     crystal axes: (cart. coord. in units of alat)
               a(1) = (   0.000000   0.707107   0.707107 )  
               a(2) = (   0.707107   0.000000   0.707107 )  
               a(3) = (   0.707107   0.707107   0.000000 )  

     reciprocal axes: (cart. coord. in units 2 pi/alat)
               b(1) = ( -0.707107  0.707107  0.707107 )  
               b(2) = (  0.707107 -0.707107  0.707107 )  
               b(3) = (  0.707107  0.707107 -0.707107 )  


     PseudoPot. # 1 for Ge read from file:
     /home/modeler/qe_pseudo/Ge.pz-bhs.UPF
     MD5 check sum: 4f8fee77de72fb640d24dcbf01bda005
     Pseudo is Norm-conserving, Zval =  4.0
     Generated by new atomic code, or converted to UPF format
     Using radial grid of  291 points,  2 beta functions with: 
                l(1) =   0
                l(2) =   1

     atomic species   valence    mass     pseudopotential
        Ge             4.00    72.63000     Ge( 1.00)

     48 Sym. Ops., with inversion, found (24 have fractional translation)



   Cartesian axes

     site n.     atom                  positions (alat units)
         1           Ge  tau(   1) = (   0.0000000   0.0000000   0.0000000  )
         2           Ge  tau(   2) = (   0.3535534   0.3535534   0.3535534  )

     number of k points=    10
                       cart. coord. in units 2pi/alat
        k(    1) = (   0.0000000   0.0000000   0.0000000), wk =   0.0160000
        k(    2) = (   0.1414214   0.1414214  -0.1414214), wk =   0.1280000
        k(    3) = (   0.2828427   0.2828427  -0.2828427), wk =   0.1280000
        k(    4) = (   0.2828427   0.0000000   0.0000000), wk =   0.0960000
        k(    5) = (   0.4242641   0.1414214  -0.1414214), wk =   0.3840000
        k(    6) = (  -0.1414214  -0.4242641   0.4242641), wk =   0.3840000
        k(    7) = (   0.0000000  -0.2828427   0.2828427), wk =   0.1920000
        k(    8) = (   0.5656854   0.0000000   0.0000000), wk =   0.0960000
        k(    9) = (   0.0000000  -0.5656854   0.5656854), wk =   0.1920000
        k(   10) = (  -0.1414214  -0.4242641   0.7071068), wk =   0.3840000

     Dense  grid:     9185 G-vectors     FFT dimensions: (  32,  32,  32)

     Estimated max dynamical RAM per process >       7.64 MB

     Initial potential from superposition of free atoms

     starting charge    6.99990, renormalised to    8.00000
     Starting wfcs are    8 randomized atomic wfcs

     total cpu time spent up to now is        0.1 secs

     Self-consistent Calculation

     iteration #  1     ecut=    40.00 Ry     beta= 0.50
     Davidson diagonalization with overlap
     ethr =  1.00E-02,  avg # of iterations =  1.4

     Threshold (ethr) on eigenvalues was too large:
     Diagonalizing with lowered threshold

     Davidson diagonalization with overlap
     ethr =  2.70E-04,  avg # of iterations =  2.9

     total cpu time spent up to now is        0.3 secs

     total energy              =     -15.99757068 Ry
     Harris-Foulkes estimate   =     -16.00042611 Ry
     estimated scf accuracy    <       0.02450553 Ry

     iteration #  2     ecut=    40.00 Ry     beta= 0.50
     Davidson diagonalization with overlap
     ethr =  3.06E-04,  avg # of iterations =  1.0

     total cpu time spent up to now is        0.3 secs

     total energy              =     -15.99665286 Ry
     Harris-Foulkes estimate   =     -15.99761523 Ry
     estimated scf accuracy    <       0.00586996 Ry

     iteration #  3     ecut=    40.00 Ry     beta= 0.50
     Davidson diagonalization with overlap
     ethr =  7.34E-05,  avg # of iterations =  1.0

     total cpu time spent up to now is        0.4 secs

     total energy              =     -15.99669916 Ry
     Harris-Foulkes estimate   =     -15.99669885 Ry
     estimated scf accuracy    <       0.00000261 Ry

     iteration #  4     ecut=    40.00 Ry     beta= 0.50
     Davidson diagonalization with overlap
     ethr =  3.27E-08,  avg # of iterations =  4.1

     total cpu time spent up to now is        0.5 secs

     total energy              =     -15.99671138 Ry
     Harris-Foulkes estimate   =     -15.99671270 Ry
     estimated scf accuracy    <       0.00000671 Ry

     iteration #  5     ecut=    40.00 Ry     beta= 0.50
     Davidson diagonalization with overlap
     ethr =  3.27E-08,  avg # of iterations =  1.0

     total cpu time spent up to now is        0.6 secs

     total energy              =     -15.99671089 Ry
     Harris-Foulkes estimate   =     -15.99671145 Ry
     estimated scf accuracy    <       0.00000339 Ry

     iteration #  6     ecut=    40.00 Ry     beta= 0.50
     Davidson diagonalization with overlap
     ethr =  3.27E-08,  avg # of iterations =  1.0

     total cpu time spent up to now is        0.7 secs

     total energy              =     -15.99671059 Ry
     Harris-Foulkes estimate   =     -15.99671092 Ry
     estimated scf accuracy    <       0.00000194 Ry

     iteration #  7     ecut=    40.00 Ry     beta= 0.50
     Davidson diagonalization with overlap
     ethr =  2.42E-08,  avg # of iterations =  1.0

     total cpu time spent up to now is        0.8 secs

     total energy              =     -15.99671042 Ry
     Harris-Foulkes estimate   =     -15.99671062 Ry
     estimated scf accuracy    <       0.00000080 Ry

     iteration #  8     ecut=    40.00 Ry     beta= 0.50
     Davidson diagonalization with overlap
     ethr =  9.97E-09,  avg # of iterations =  1.0

     total cpu time spent up to now is        0.8 secs

     total energy              =     -15.99671041 Ry
     Harris-Foulkes estimate   =     -15.99671045 Ry
     estimated scf accuracy    <       0.00000019 Ry

     iteration #  9     ecut=    40.00 Ry     beta= 0.50
     Davidson diagonalization with overlap
     ethr =  2.34E-09,  avg # of iterations =  2.2

     total cpu time spent up to now is        0.9 secs

     End of self-consistent calculation

          k = 0.0000 0.0000 0.0000 (  1139 PWs)   bands (ev):

    -6.6741   6.9242   6.9242   6.9242

          k = 0.1414 0.1414-0.1414 (  1134 PWs)   bands (ev):

    -6.1696   3.0577   6.1680   6.1680

          k = 0.2828 0.2828-0.2828 (  1149 PWs)   bands (ev):

    -4.8307  -0.6093   5.4693   5.4693

          k = 0.2828 0.0000 0.0000 (  1134 PWs)   bands (ev):

    -5.9943   3.3211   5.0799   5.0799

          k = 0.4243 0.1414-0.1414 (  1130 PWs)   bands (ev):

    -4.8634   0.3275   3.6681   4.4598

          k =-0.1414-0.4243 0.4243 (  1135 PWs)   bands (ev):

    -3.9948  -1.1454   2.7459   4.7801

          k = 0.0000-0.2828 0.2828 (  1131 PWs)   bands (ev):

    -5.3500   1.2550   3.3041   5.8219

          k = 0.5657 0.0000 0.0000 (  1134 PWs)   bands (ev):

    -3.9698  -0.7309   3.6377   3.6377

          k = 0.0000-0.5657 0.5657 (  1144 PWs)   bands (ev):

    -2.7565  -2.0749   2.1411   3.7722

          k =-0.1414-0.4243 0.7071 (  1135 PWs)   bands (ev):

    -3.5386  -1.1498   2.2200   3.3383

     highest occupied level (ev):     6.9242

!    total energy              =     -15.99671042 Ry
     Harris-Foulkes estimate   =     -15.99671043 Ry
     estimated scf accuracy    <       0.00000005 Ry

     The total energy is the sum of the following terms:

     one-electron contribution =       4.62516918 Ry
     hartree contribution      =       1.06776039 Ry
     xc contribution           =      -4.79736883 Ry
     ewald contribution        =     -16.89227116 Ry

     convergence has been achieved in   9 iterations

     Forces acting on atoms (cartesian axes, Ry/au):

     atom    1 type  1   force =    -0.00000000   -0.00000000    0.00000000
     atom    2 type  1   force =     0.00000000    0.00000000   -0.00000000

     Total force =     0.000000     Total SCF correction =     0.000000


     Computing stress (Cartesian axis) and pressure

          total   stress  (Ry/bohr**3)                   (kbar)     P=  108.04
   0.00073445   0.00000000   0.00000000        108.04      0.00      0.00
   0.00000000   0.00073445  -0.00000000          0.00    108.04     -0.00
  -0.00000000  -0.00000000   0.00073445         -0.00     -0.00    108.04


     init_run     :      0.08s CPU      0.08s WALL (       1 calls)
     electrons    :      0.77s CPU      0.79s WALL (       1 calls)
     forces       :      0.01s CPU      0.01s WALL (       1 calls)
     stress       :      0.05s CPU      0.05s WALL (       1 calls)

     Called by init_run:
     wfcinit      :      0.05s CPU      0.05s WALL (       1 calls)
     potinit      :      0.00s CPU      0.00s WALL (       1 calls)
     hinit0       :      0.02s CPU      0.02s WALL (       1 calls)

     Called by electrons:
     c_bands      :      0.59s CPU      0.60s WALL (      10 calls)
     sum_band     :      0.14s CPU      0.14s WALL (      10 calls)
     v_of_rho     :      0.02s CPU      0.02s WALL (      10 calls)
     mix_rho      :      0.01s CPU      0.02s WALL (      10 calls)

     Called by c_bands:
     init_us_2    :      0.05s CPU      0.05s WALL (     230 calls)
     cegterg      :      0.54s CPU      0.56s WALL (     100 calls)

     Called by sum_band:

     Called by *egterg:
     h_psi        :      0.49s CPU      0.50s WALL (     276 calls)
     g_psi        :      0.01s CPU      0.01s WALL (     166 calls)
     cdiaghg      :      0.01s CPU      0.02s WALL (     256 calls)

     Called by h_psi:
     h_psi:pot    :      0.48s CPU      0.50s WALL (     276 calls)
     h_psi:calbec :      0.02s CPU      0.02s WALL (     276 calls)
     vloc_psi     :      0.44s CPU      0.45s WALL (     276 calls)
     add_vuspsi   :      0.02s CPU      0.02s WALL (     276 calls)

     General routines
     calbec       :      0.03s CPU      0.03s WALL (     326 calls)
     fft          :      0.01s CPU      0.01s WALL (      35 calls)
     ffts         :      0.00s CPU      0.00s WALL (      10 calls)
     fftw         :      0.38s CPU      0.40s WALL (    2498 calls)

     Parallel routines

     PWSCF        :      0.93s CPU      0.96s WALL


   This run was terminated on:   3:49:39   7Oct2020            

=------------------------------------------------------------------------------=
   JOB DONE.
=------------------------------------------------------------------------------=
