
     Program PWSCF v.6.4.1 starts on  7Oct2020 at  0:37:56 

     This program is part of the open-source Quantum ESPRESSO suite
     for quantum simulation of materials; please cite
         "P. Giannozzi et al., J. Phys.:Condens. Matter 21 395502 (2009);
         "P. Giannozzi et al., J. Phys.:Condens. Matter 29 465901 (2017);
          URL http://www.quantum-espresso.org", 
     in publications or presentations arising from this work. More details at
     http://www.quantum-espresso.org/quote

     Parallel version (MPI), running on     1 processors

     MPI processes distributed on     1 nodes
     Waiting for input...
     Reading input from standard input
Warning: card &IONS ignored
Warning: card / ignored
Warning: card &CELL ignored
Warning: card / ignored

     Current dimensions of program PWSCF are:
     Max number of different atomic species (ntypx) = 10
     Max number of k-points (npk) =  40000
     Max angular momentum in pseudopotentials (lmaxx) =  3

     Subspace diagonalization in iterative solution of the eigenvalue problem:
     a serial algorithm will be used

     Message from routine setup:
     DEPRECATED: symmetry with ibrav=0, use correct ibrav instead

     G-vector sticks info
     --------------------
     sticks:   dense  smooth     PW     G-vecs:    dense   smooth      PW
     Sum         253     253     85                 2637     2637     531



     bravais-lattice index     =            0
     lattice parameter (alat)  =       6.6812  a.u.
     unit-cell volume          =     210.8855 (a.u.)^3
     number of atoms/cell      =            2
     number of atomic types    =            1
     number of electrons       =         8.00
     number of Kohn-Sham states=            4
     kinetic-energy cutoff     =      20.0000  Ry
     charge density cutoff     =      80.0000  Ry
     convergence threshold     =      1.0E-07
     mixing beta               =       0.5000
     number of iterations used =            8  plain     mixing
     Exchange-correlation      = SLA PZ NOGX NOGC ( 1  1  0  0 0 0)

     celldm(1)=   6.681191  celldm(2)=   0.000000  celldm(3)=   0.000000
     celldm(4)=   0.000000  celldm(5)=   0.000000  celldm(6)=   0.000000

     crystal axes: (cart. coord. in units of alat)
               a(1) = (   0.000000   0.707107   0.707107 )  
               a(2) = (   0.707107   0.000000   0.707107 )  
               a(3) = (   0.707107   0.707107   0.000000 )  

     reciprocal axes: (cart. coord. in units 2 pi/alat)
               b(1) = ( -0.707107  0.707107  0.707107 )  
               b(2) = (  0.707107 -0.707107  0.707107 )  
               b(3) = (  0.707107  0.707107 -0.707107 )  


     PseudoPot. # 1 for Ge read from file:
     /home/modeler/qe_pseudo/Ge.pz-bhs.UPF
     MD5 check sum: 4f8fee77de72fb640d24dcbf01bda005
     Pseudo is Norm-conserving, Zval =  4.0
     Generated by new atomic code, or converted to UPF format
     Using radial grid of  291 points,  2 beta functions with: 
                l(1) =   0
                l(2) =   1

     atomic species   valence    mass     pseudopotential
        Ge             4.00    72.63000     Ge( 1.00)

      4 Sym. Ops. (no inversion) found



   Cartesian axes

     site n.     atom                  positions (alat units)
         1           Ge  tau(   1) = (   0.0000000   0.0000000   0.0707107  )
         2           Ge  tau(   2) = (   0.3535534   0.3535534   0.3535534  )

     number of k points=    18
                       cart. coord. in units 2pi/alat
        k(    1) = (   0.0000000   0.0000000   0.0000000), wk =   0.0312500
        k(    2) = (   0.1767767   0.1767767  -0.1767767), wk =   0.1250000
        k(    3) = (  -0.3535534  -0.3535534   0.3535534), wk =   0.0625000
        k(    4) = (   0.3535534   0.0000000   0.0000000), wk =   0.1250000
        k(    5) = (  -0.1767767  -0.5303301   0.5303301), wk =   0.2500000
        k(    6) = (   0.0000000  -0.3535534   0.3535534), wk =   0.2500000
        k(    7) = (  -0.7071068   0.0000000   0.0000000), wk =   0.0625000
        k(    8) = (  -0.7071068   0.3535534   0.0000000), wk =   0.1250000
        k(    9) = (   0.1767767  -0.1767767  -0.1767767), wk =   0.1250000
        k(   10) = (  -0.3535534   0.3535534   0.3535534), wk =   0.0625000
        k(   11) = (   0.0000000   0.0000000   0.3535534), wk =   0.0625000
        k(   12) = (  -0.5303301   0.1767767   0.5303301), wk =   0.2500000
        k(   13) = (   0.5303301   0.5303301  -0.1767767), wk =   0.1250000
        k(   14) = (  -0.5303301   0.5303301   0.1767767), wk =   0.1250000
        k(   15) = (   0.3535534   0.3535534   0.0000000), wk =   0.0625000
        k(   16) = (  -0.3535534   0.3535534   0.0000000), wk =   0.0625000
        k(   17) = (   0.0000000   0.0000000  -0.7071068), wk =   0.0312500
        k(   18) = (   0.7071068  -0.0000000   0.3535534), wk =   0.0625000

     Dense  grid:     2637 G-vectors     FFT dimensions: (  20,  20,  20)

     Estimated max dynamical RAM per process >       2.29 MB

     Initial potential from superposition of free atoms

     starting charge    6.99990, renormalised to    8.00000
     Starting wfcs are    8 randomized atomic wfcs

     total cpu time spent up to now is        0.1 secs

     Self-consistent Calculation

     iteration #  1     ecut=    20.00 Ry     beta= 0.50
     Davidson diagonalization with overlap
     ethr =  1.00E-02,  avg # of iterations =  1.6

     Threshold (ethr) on eigenvalues was too large:
     Diagonalizing with lowered threshold

     Davidson diagonalization with overlap
     ethr =  3.10E-04,  avg # of iterations =  2.6

     total cpu time spent up to now is        0.1 secs

     total energy              =     -15.82108483 Ry
     Harris-Foulkes estimate   =     -15.82543212 Ry
     estimated scf accuracy    <       0.02919591 Ry

     iteration #  2     ecut=    20.00 Ry     beta= 0.50
     Davidson diagonalization with overlap
     ethr =  3.65E-04,  avg # of iterations =  1.0

     total cpu time spent up to now is        0.2 secs

     total energy              =     -15.82024805 Ry
     Harris-Foulkes estimate   =     -15.82134907 Ry
     estimated scf accuracy    <       0.00636366 Ry

     iteration #  3     ecut=    20.00 Ry     beta= 0.50
     Davidson diagonalization with overlap
     ethr =  7.95E-05,  avg # of iterations =  1.0

     total cpu time spent up to now is        0.2 secs

     total energy              =     -15.82040518 Ry
     Harris-Foulkes estimate   =     -15.82042335 Ry
     estimated scf accuracy    <       0.00004053 Ry

     iteration #  4     ecut=    20.00 Ry     beta= 0.50
     Davidson diagonalization with overlap
     c_bands:  1 eigenvalues not converged
     ethr =  5.07E-07,  avg # of iterations =  3.9

     total cpu time spent up to now is        0.3 secs

     total energy              =     -15.82097058 Ry
     Harris-Foulkes estimate   =     -15.82097136 Ry
     estimated scf accuracy    <       0.00008769 Ry

     iteration #  5     ecut=    20.00 Ry     beta= 0.50
     Davidson diagonalization with overlap
     ethr =  5.07E-07,  avg # of iterations =  1.7

     total cpu time spent up to now is        0.3 secs

     total energy              =     -15.82097197 Ry
     Harris-Foulkes estimate   =     -15.82097207 Ry
     estimated scf accuracy    <       0.00008637 Ry

     iteration #  6     ecut=    20.00 Ry     beta= 0.50
     Davidson diagonalization with overlap
     ethr =  5.07E-07,  avg # of iterations =  1.0

     total cpu time spent up to now is        0.3 secs

     total energy              =     -15.82096937 Ry
     Harris-Foulkes estimate   =     -15.82097200 Ry
     estimated scf accuracy    <       0.00008594 Ry

     iteration #  7     ecut=    20.00 Ry     beta= 0.50
     Davidson diagonalization with overlap
     ethr =  5.07E-07,  avg # of iterations =  1.0

     total cpu time spent up to now is        0.3 secs

     total energy              =     -15.82095142 Ry
     Harris-Foulkes estimate   =     -15.82096947 Ry
     estimated scf accuracy    <       0.00007931 Ry

     iteration #  8     ecut=    20.00 Ry     beta= 0.50
     Davidson diagonalization with overlap
     ethr =  5.07E-07,  avg # of iterations =  2.4

     total cpu time spent up to now is        0.4 secs

     total energy              =     -15.82094688 Ry
     Harris-Foulkes estimate   =     -15.82095973 Ry
     estimated scf accuracy    <       0.00005669 Ry

     iteration #  9     ecut=    20.00 Ry     beta= 0.50
     Davidson diagonalization with overlap
     ethr =  5.07E-07,  avg # of iterations =  1.0

     total cpu time spent up to now is        0.4 secs

     total energy              =     -15.82095177 Ry
     Harris-Foulkes estimate   =     -15.82094791 Ry
     estimated scf accuracy    <       0.00002815 Ry

     iteration # 10     ecut=    20.00 Ry     beta= 0.50
     Davidson diagonalization with overlap
     ethr =  3.52E-07,  avg # of iterations =  1.0

     total cpu time spent up to now is        0.4 secs

     total energy              =     -15.82094265 Ry
     Harris-Foulkes estimate   =     -15.82095224 Ry
     estimated scf accuracy    <       0.00003744 Ry

     iteration # 11     ecut=    20.00 Ry     beta= 0.50
     Davidson diagonalization with overlap
     ethr =  3.52E-07,  avg # of iterations =  1.1

     total cpu time spent up to now is        0.5 secs

     total energy              =     -15.82093833 Ry
     Harris-Foulkes estimate   =     -15.82094350 Ry
     estimated scf accuracy    <       0.00001586 Ry

     iteration # 12     ecut=    20.00 Ry     beta= 0.50
     Davidson diagonalization with overlap
     ethr =  1.98E-07,  avg # of iterations =  1.7

     total cpu time spent up to now is        0.5 secs

     total energy              =     -15.82094128 Ry
     Harris-Foulkes estimate   =     -15.82093982 Ry
     estimated scf accuracy    <       0.00000239 Ry

     iteration # 13     ecut=    20.00 Ry     beta= 0.50
     Davidson diagonalization with overlap
     ethr =  2.99E-08,  avg # of iterations =  2.3

     total cpu time spent up to now is        0.5 secs

     total energy              =     -15.82093826 Ry
     Harris-Foulkes estimate   =     -15.82094156 Ry
     estimated scf accuracy    <       0.00000630 Ry

     iteration # 14     ecut=    20.00 Ry     beta= 0.50
     Davidson diagonalization with overlap
     ethr =  2.99E-08,  avg # of iterations =  3.1

     total cpu time spent up to now is        0.6 secs

     total energy              =     -15.82093943 Ry
     Harris-Foulkes estimate   =     -15.82093969 Ry
     estimated scf accuracy    <       0.00000071 Ry

     iteration # 15     ecut=    20.00 Ry     beta= 0.50
     Davidson diagonalization with overlap
     ethr =  8.82E-09,  avg # of iterations =  1.6

     total cpu time spent up to now is        0.6 secs

     total energy              =     -15.82093945 Ry
     Harris-Foulkes estimate   =     -15.82093947 Ry
     estimated scf accuracy    <       0.00000015 Ry

     iteration # 16     ecut=    20.00 Ry     beta= 0.50
     Davidson diagonalization with overlap
     ethr =  1.83E-09,  avg # of iterations =  1.3

     total cpu time spent up to now is        0.6 secs

     total energy              =     -15.82093942 Ry
     Harris-Foulkes estimate   =     -15.82093946 Ry
     estimated scf accuracy    <       0.00000011 Ry

     iteration # 17     ecut=    20.00 Ry     beta= 0.50
     Davidson diagonalization with overlap
     ethr =  1.41E-09,  avg # of iterations =  1.4

     total cpu time spent up to now is        0.7 secs

     End of self-consistent calculation

          k = 0.0000 0.0000 0.0000 (   331 PWs)   bands (ev):

    -5.7924   8.4602  10.2334  11.5154

          k = 0.1768 0.1768-0.1768 (   314 PWs)   bands (ev):

    -4.8274   3.8035   8.3285   9.5022

          k =-0.3536-0.3536 0.3536 (   332 PWs)   bands (ev):

    -2.5726  -0.6098   7.5341   8.8463

          k = 0.3536 0.0000 0.0000 (   311 PWs)   bands (ev):

    -4.5336   4.7058   7.0444   7.4243

          k =-0.1768-0.5303 0.5303 (   318 PWs)   bands (ev):

    -2.3066   0.4259   5.0348   6.6195

          k = 0.0000-0.3536 0.3536 (   315 PWs)   bands (ev):

    -3.3700   2.3361   4.1550   8.0024

          k =-0.7071 0.0000 0.0000 (   326 PWs)   bands (ev):

    -0.7665  -0.7662   5.6709   5.6709

          k =-0.7071 0.3536 0.0000 (   308 PWs)   bands (ev):

    -1.1233   0.3096   3.6086   4.4298

          k = 0.1768-0.1768-0.1768 (   314 PWs)   bands (ev):

    -4.8969   4.7205   7.6210   9.4730

          k =-0.3536 0.3536 0.3536 (   332 PWs)   bands (ev):

    -3.2214   0.7724   7.0519   8.9162

          k = 0.0000 0.0000 0.3536 (   311 PWs)   bands (ev):

    -4.5430   5.3708   6.2589   7.3559

          k =-0.5303 0.1768 0.5303 (   318 PWs)   bands (ev):

    -2.7079   1.7769   3.9769   6.7418

          k = 0.5303 0.5303-0.1768 (   318 PWs)   bands (ev):

    -2.4099   0.8546   4.2257   6.9166

          k =-0.5303 0.5303 0.1768 (   318 PWs)   bands (ev):

    -2.7249   1.6255   5.0383   5.8271

          k = 0.3536 0.3536 0.0000 (   315 PWs)   bands (ev):

    -3.1685   1.4213   4.3858   8.5062

          k =-0.3536 0.3536 0.0000 (   315 PWs)   bands (ev):

    -3.5344   3.3780   4.1707   6.9255

          k = 0.0000 0.0000-0.7071 (   326 PWs)   bands (ev):

    -1.5165   0.3029   4.9851   5.8614

          k = 0.7071-0.0000 0.3536 (   308 PWs)   bands (ev):

    -0.5211  -0.5207   4.1514   4.1515

     highest occupied level (ev):    11.5154

!    total energy              =     -15.82093941 Ry
     Harris-Foulkes estimate   =     -15.82093943 Ry
     estimated scf accuracy    <       0.00000003 Ry

     The total energy is the sum of the following terms:

     one-electron contribution =       6.53075070 Ry
     hartree contribution      =       0.88666332 Ry
     xc contribution           =      -5.06354409 Ry
     ewald contribution        =     -18.17480933 Ry

     convergence has been achieved in  17 iterations

     Forces acting on atoms (cartesian axes, Ry/au):

     atom    1 type  1   force =     0.00000000    0.00000000   -0.21692152
     atom    2 type  1   force =     0.00000000    0.00000000    0.21692152

     Total force =     0.306773     Total SCF correction =     0.000046


     Computing stress (Cartesian axis) and pressure

          total   stress  (Ry/bohr**3)                   (kbar)     P=  585.85
   0.00424523   0.00220080   0.00000000        624.49    323.75      0.00
   0.00220080   0.00424523   0.00000000        323.75    624.49      0.00
   0.00000000   0.00000000   0.00345715          0.00      0.00    508.56


     init_run     :      0.04s CPU      0.04s WALL (       1 calls)
     electrons    :      0.58s CPU      0.61s WALL (       1 calls)
     forces       :      0.00s CPU      0.00s WALL (       1 calls)
     stress       :      0.02s CPU      0.02s WALL (       1 calls)

     Called by init_run:
     wfcinit      :      0.03s CPU      0.03s WALL (       1 calls)
     potinit      :      0.00s CPU      0.00s WALL (       1 calls)
     hinit0       :      0.01s CPU      0.01s WALL (       1 calls)

     Called by electrons:
     c_bands      :      0.46s CPU      0.49s WALL (      18 calls)
     sum_band     :      0.09s CPU      0.09s WALL (      18 calls)
     v_of_rho     :      0.01s CPU      0.01s WALL (      18 calls)
     mix_rho      :      0.01s CPU      0.01s WALL (      18 calls)

     Called by c_bands:
     init_us_2    :      0.04s CPU      0.04s WALL (     702 calls)
     cegterg      :      0.42s CPU      0.44s WALL (     324 calls)

     Called by sum_band:

     Called by *egterg:
     h_psi        :      0.33s CPU      0.34s WALL (     891 calls)
     g_psi        :      0.01s CPU      0.01s WALL (     549 calls)
     cdiaghg      :      0.03s CPU      0.03s WALL (     855 calls)

     Called by h_psi:
     h_psi:pot    :      0.32s CPU      0.34s WALL (     891 calls)
     h_psi:calbec :      0.02s CPU      0.02s WALL (     891 calls)
     vloc_psi     :      0.28s CPU      0.29s WALL (     891 calls)
     add_vuspsi   :      0.02s CPU      0.02s WALL (     891 calls)

     General routines
     calbec       :      0.02s CPU      0.02s WALL (     981 calls)
     fft          :      0.00s CPU      0.00s WALL (      59 calls)
     ffts         :      0.00s CPU      0.00s WALL (      18 calls)
     fftw         :      0.23s CPU      0.24s WALL (    7710 calls)

     Parallel routines

     PWSCF        :      0.68s CPU      0.71s WALL


   This run was terminated on:   0:37:57   7Oct2020            

=------------------------------------------------------------------------------=
   JOB DONE.
=------------------------------------------------------------------------------=
