
     Program PWSCF v.6.4.1 starts on  7Oct2020 at  2: 2:45 

     This program is part of the open-source Quantum ESPRESSO suite
     for quantum simulation of materials; please cite
         "P. Giannozzi et al., J. Phys.:Condens. Matter 21 395502 (2009);
         "P. Giannozzi et al., J. Phys.:Condens. Matter 29 465901 (2017);
          URL http://www.quantum-espresso.org", 
     in publications or presentations arising from this work. More details at
     http://www.quantum-espresso.org/quote

     Parallel version (MPI), running on     1 processors

     MPI processes distributed on     1 nodes
     Waiting for input...
     Reading input from standard input
Warning: card &IONS ignored
Warning: card / ignored
Warning: card &CELL ignored
Warning: card / ignored

     Current dimensions of program PWSCF are:
     Max number of different atomic species (ntypx) = 10
     Max number of k-points (npk) =  40000
     Max angular momentum in pseudopotentials (lmaxx) =  3

     Subspace diagonalization in iterative solution of the eigenvalue problem:
     a serial algorithm will be used

     Message from routine setup:
     DEPRECATED: symmetry with ibrav=0, use correct ibrav instead

     G-vector sticks info
     --------------------
     sticks:   dense  smooth     PW     G-vecs:    dense   smooth      PW
     Sum        1189    1189    349                27317    27317    4279



     bravais-lattice index     =            0
     lattice parameter (alat)  =       7.6014  a.u.
     unit-cell volume          =     310.5743 (a.u.)^3
     number of atoms/cell      =            2
     number of atomic types    =            1
     number of electrons       =         8.00
     number of Kohn-Sham states=            4
     kinetic-energy cutoff     =      75.0000  Ry
     charge density cutoff     =     300.0000  Ry
     convergence threshold     =      1.0E-07
     mixing beta               =       0.5000
     number of iterations used =            8  plain     mixing
     Exchange-correlation      = SLA PZ NOGX NOGC ( 1  1  0  0 0 0)

     celldm(1)=   7.601398  celldm(2)=   0.000000  celldm(3)=   0.000000
     celldm(4)=   0.000000  celldm(5)=   0.000000  celldm(6)=   0.000000

     crystal axes: (cart. coord. in units of alat)
               a(1) = (   0.000000   0.707107   0.707107 )  
               a(2) = (   0.707107   0.000000   0.707107 )  
               a(3) = (   0.707107   0.707107   0.000000 )  

     reciprocal axes: (cart. coord. in units 2 pi/alat)
               b(1) = ( -0.707107  0.707107  0.707107 )  
               b(2) = (  0.707107 -0.707107  0.707107 )  
               b(3) = (  0.707107  0.707107 -0.707107 )  


     PseudoPot. # 1 for Ge read from file:
     /home/modeler/qe_pseudo/Ge.pz-bhs.UPF
     MD5 check sum: 4f8fee77de72fb640d24dcbf01bda005
     Pseudo is Norm-conserving, Zval =  4.0
     Generated by new atomic code, or converted to UPF format
     Using radial grid of  291 points,  2 beta functions with: 
                l(1) =   0
                l(2) =   1

     atomic species   valence    mass     pseudopotential
        Ge             4.00    72.63000     Ge( 1.00)

     24 Sym. Ops. (no inversion) found



   Cartesian axes

     site n.     atom                  positions (alat units)
         1           Ge  tau(   1) = (   0.0000000   0.0000000   0.0000000  )
         2           Ge  tau(   2) = (   0.3535524   0.3535524   0.3535524  )

     number of k points=     8
                       cart. coord. in units 2pi/alat
        k(    1) = (   0.0000000   0.0000000   0.0000000), wk =   0.0312500
        k(    2) = (   0.1767767   0.1767767  -0.1767767), wk =   0.2500000
        k(    3) = (  -0.3535534  -0.3535534   0.3535534), wk =   0.1250000
        k(    4) = (   0.3535534   0.0000000   0.0000000), wk =   0.1875000
        k(    5) = (  -0.1767767  -0.5303301   0.5303301), wk =   0.7500000
        k(    6) = (   0.0000000  -0.3535534   0.3535534), wk =   0.3750000
        k(    7) = (  -0.7071068   0.0000000   0.0000000), wk =   0.0937500
        k(    8) = (  -0.7071068   0.3535534   0.0000000), wk =   0.1875000

     Dense  grid:    27317 G-vectors     FFT dimensions: (  45,  45,  45)

     Estimated max dynamical RAM per process >      21.72 MB

     Initial potential from superposition of free atoms

     starting charge    6.99990, renormalised to    8.00000
     Starting wfcs are    8 randomized atomic wfcs

     total cpu time spent up to now is        0.3 secs

     Self-consistent Calculation

     iteration #  1     ecut=    75.00 Ry     beta= 0.50
     Davidson diagonalization with overlap
     ethr =  1.00E-02,  avg # of iterations =  1.9

     Threshold (ethr) on eigenvalues was too large:
     Diagonalizing with lowered threshold

     Davidson diagonalization with overlap
     ethr =  3.18E-04,  avg # of iterations =  2.6

     total cpu time spent up to now is        1.1 secs

     total energy              =     -15.99564237 Ry
     Harris-Foulkes estimate   =     -15.99922849 Ry
     estimated scf accuracy    <       0.02711298 Ry

     iteration #  2     ecut=    75.00 Ry     beta= 0.50
     Davidson diagonalization with overlap
     ethr =  3.39E-04,  avg # of iterations =  1.0

     total cpu time spent up to now is        1.4 secs

     total energy              =     -15.99464661 Ry
     Harris-Foulkes estimate   =     -15.99577313 Ry
     estimated scf accuracy    <       0.00646218 Ry

     iteration #  3     ecut=    75.00 Ry     beta= 0.50
     Davidson diagonalization with overlap
     ethr =  8.08E-05,  avg # of iterations =  1.0

     total cpu time spent up to now is        1.7 secs

     total energy              =     -15.99473415 Ry
     Harris-Foulkes estimate   =     -15.99473899 Ry
     estimated scf accuracy    <       0.00000939 Ry

     iteration #  4     ecut=    75.00 Ry     beta= 0.50
     Davidson diagonalization with overlap
     ethr =  1.17E-07,  avg # of iterations =  5.0

     total cpu time spent up to now is        2.3 secs

     total energy              =     -15.99475967 Ry
     Harris-Foulkes estimate   =     -15.99475973 Ry
     estimated scf accuracy    <       0.00000034 Ry

     iteration #  5     ecut=    75.00 Ry     beta= 0.50
     Davidson diagonalization with overlap
     ethr =  4.22E-09,  avg # of iterations =  3.6

     total cpu time spent up to now is        2.8 secs

     End of self-consistent calculation

          k = 0.0000 0.0000 0.0000 (  3479 PWs)   bands (ev):

    -7.1749   5.2705   5.2706   5.2706

          k = 0.1768 0.1768-0.1768 (  3398 PWs)   bands (ev):

    -6.4925   0.5855   4.4379   4.4380

          k =-0.3536-0.3536 0.3536 (  3426 PWs)   bands (ev):

    -5.2475  -2.2374   3.9459   3.9459

          k = 0.3536 0.0000 0.0000 (  3399 PWs)   bands (ev):

    -6.2438   0.5547   3.3201   3.3201

          k =-0.1768-0.5303 0.5303 (  3401 PWs)   bands (ev):

    -4.8556  -2.0685   1.6454   2.9749

          k = 0.0000-0.3536 0.3536 (  3418 PWs)   bands (ev):

    -5.4314  -1.2307   1.5094   3.8421

          k =-0.7071 0.0000 0.0000 (  3378 PWs)   bands (ev):

    -3.5346  -3.5345   2.3275   2.3275

          k =-0.7071 0.3536 0.0000 (  3400 PWs)   bands (ev):

    -3.4446  -3.4445   1.4791   1.4792

     highest occupied level (ev):     5.2706

!    total energy              =     -15.99475973 Ry
     Harris-Foulkes estimate   =     -15.99475975 Ry
     estimated scf accuracy    <       0.00000005 Ry

     The total energy is the sum of the following terms:

     one-electron contribution =       3.45799740 Ry
     hartree contribution      =       1.22710779 Ry
     xc contribution           =      -4.64474638 Ry
     ewald contribution        =     -16.03511853 Ry

     convergence has been achieved in   5 iterations

     Forces acting on atoms (cartesian axes, Ry/au):

     atom    1 type  1   force =     0.00000000    0.00000000    0.00000000
     atom    2 type  1   force =     0.00000000    0.00000000    0.00000000

     Total force =     0.000000     Total SCF correction =     0.000000


     Computing stress (Cartesian axis) and pressure

          total   stress  (Ry/bohr**3)                   (kbar)     P=  -25.29
  -0.00017191   0.00000000   0.00000000        -25.29      0.00      0.00
   0.00000000  -0.00017191   0.00000000          0.00    -25.29      0.00
   0.00000000   0.00000000  -0.00017191          0.00      0.00    -25.29


     init_run     :      0.31s CPU      0.31s WALL (       1 calls)
     electrons    :      2.43s CPU      2.44s WALL (       1 calls)
     forces       :      0.02s CPU      0.02s WALL (       1 calls)
     stress       :      0.13s CPU      0.13s WALL (       1 calls)

     Called by init_run:
     wfcinit      :      0.24s CPU      0.24s WALL (       1 calls)
     potinit      :      0.01s CPU      0.01s WALL (       1 calls)
     hinit0       :      0.03s CPU      0.03s WALL (       1 calls)

     Called by electrons:
     c_bands      :      1.98s CPU      1.99s WALL (       6 calls)
     sum_band     :      0.37s CPU      0.37s WALL (       6 calls)
     v_of_rho     :      0.05s CPU      0.05s WALL (       6 calls)
     mix_rho      :      0.02s CPU      0.03s WALL (       6 calls)

     Called by c_bands:
     init_us_2    :      0.07s CPU      0.07s WALL (     120 calls)
     cegterg      :      1.93s CPU      1.94s WALL (      48 calls)

     Called by sum_band:

     Called by *egterg:
     h_psi        :      1.99s CPU      2.00s WALL (     177 calls)
     g_psi        :      0.01s CPU      0.01s WALL (     121 calls)
     cdiaghg      :      0.01s CPU      0.01s WALL (     161 calls)

     Called by h_psi:
     h_psi:pot    :      1.99s CPU      1.99s WALL (     177 calls)
     h_psi:calbec :      0.04s CPU      0.04s WALL (     177 calls)
     vloc_psi     :      1.91s CPU      1.92s WALL (     177 calls)
     add_vuspsi   :      0.03s CPU      0.03s WALL (     177 calls)

     General routines
     calbec       :      0.05s CPU      0.05s WALL (     217 calls)
     fft          :      0.05s CPU      0.06s WALL (      23 calls)
     ffts         :      0.01s CPU      0.01s WALL (       6 calls)
     fftw         :      1.96s CPU      1.97s WALL (    1428 calls)

     Parallel routines

     PWSCF        :      2.91s CPU      2.93s WALL


   This run was terminated on:   2: 2:48   7Oct2020            

=------------------------------------------------------------------------------=
   JOB DONE.
=------------------------------------------------------------------------------=
