
     Program PWSCF v.6.4.1 starts on  7Oct2020 at  3:49:34 

     This program is part of the open-source Quantum ESPRESSO suite
     for quantum simulation of materials; please cite
         "P. Giannozzi et al., J. Phys.:Condens. Matter 21 395502 (2009);
         "P. Giannozzi et al., J. Phys.:Condens. Matter 29 465901 (2017);
          URL http://www.quantum-espresso.org", 
     in publications or presentations arising from this work. More details at
     http://www.quantum-espresso.org/quote

     Parallel version (MPI), running on     1 processors

     MPI processes distributed on     1 nodes
     Waiting for input...
     Reading input from standard input
Warning: card &IONS ignored
Warning: card / ignored
Warning: card &CELL ignored
Warning: card / ignored

     Current dimensions of program PWSCF are:
     Max number of different atomic species (ntypx) = 10
     Max number of k-points (npk) =  40000
     Max angular momentum in pseudopotentials (lmaxx) =  3

     Subspace diagonalization in iterative solution of the eigenvalue problem:
     a serial algorithm will be used

     Message from routine setup:
     DEPRECATED: symmetry with ibrav=0, use correct ibrav instead

     G-vector sticks info
     --------------------
     sticks:   dense  smooth     PW     G-vecs:    dense   smooth      PW
     Sum         499     499    151                 7239     7239    1243



     bravais-lattice index     =            0
     lattice parameter (alat)  =       6.6812  a.u.
     unit-cell volume          =     210.8855 (a.u.)^3
     number of atoms/cell      =            2
     number of atomic types    =            1
     number of electrons       =         8.00
     number of Kohn-Sham states=            4
     kinetic-energy cutoff     =      40.0000  Ry
     charge density cutoff     =     160.0000  Ry
     convergence threshold     =      1.0E-07
     mixing beta               =       0.5000
     number of iterations used =            8  plain     mixing
     Exchange-correlation      = SLA PZ NOGX NOGC ( 1  1  0  0 0 0)

     celldm(1)=   6.681191  celldm(2)=   0.000000  celldm(3)=   0.000000
     celldm(4)=   0.000000  celldm(5)=   0.000000  celldm(6)=   0.000000

     crystal axes: (cart. coord. in units of alat)
               a(1) = (   0.000000   0.707107   0.707107 )  
               a(2) = (   0.707107   0.000000   0.707107 )  
               a(3) = (   0.707107   0.707107   0.000000 )  

     reciprocal axes: (cart. coord. in units 2 pi/alat)
               b(1) = ( -0.707107  0.707107  0.707107 )  
               b(2) = (  0.707107 -0.707107  0.707107 )  
               b(3) = (  0.707107  0.707107 -0.707107 )  


     PseudoPot. # 1 for Ge read from file:
     /home/modeler/qe_pseudo/Ge.pz-bhs.UPF
     MD5 check sum: 4f8fee77de72fb640d24dcbf01bda005
     Pseudo is Norm-conserving, Zval =  4.0
     Generated by new atomic code, or converted to UPF format
     Using radial grid of  291 points,  2 beta functions with: 
                l(1) =   0
                l(2) =   1

     atomic species   valence    mass     pseudopotential
        Ge             4.00    72.63000     Ge( 1.00)

     48 Sym. Ops., with inversion, found (24 have fractional translation)



   Cartesian axes

     site n.     atom                  positions (alat units)
         1           Ge  tau(   1) = (   0.0000000   0.0000000   0.0000000  )
         2           Ge  tau(   2) = (   0.3535534   0.3535534   0.3535534  )

     number of k points=    10
                       cart. coord. in units 2pi/alat
        k(    1) = (   0.0000000   0.0000000   0.0000000), wk =   0.0160000
        k(    2) = (   0.1414214   0.1414214  -0.1414214), wk =   0.1280000
        k(    3) = (   0.2828427   0.2828427  -0.2828427), wk =   0.1280000
        k(    4) = (   0.2828427   0.0000000   0.0000000), wk =   0.0960000
        k(    5) = (   0.4242641   0.1414214  -0.1414214), wk =   0.3840000
        k(    6) = (  -0.1414214  -0.4242641   0.4242641), wk =   0.3840000
        k(    7) = (   0.0000000  -0.2828427   0.2828427), wk =   0.1920000
        k(    8) = (   0.5656854   0.0000000   0.0000000), wk =   0.0960000
        k(    9) = (   0.0000000  -0.5656854   0.5656854), wk =   0.1920000
        k(   10) = (  -0.1414214  -0.4242641   0.7071068), wk =   0.3840000

     Dense  grid:     7239 G-vectors     FFT dimensions: (  32,  32,  32)

     Estimated max dynamical RAM per process >       6.52 MB

     Initial potential from superposition of free atoms

     starting charge    6.99990, renormalised to    8.00000
     Starting wfcs are    8 randomized atomic wfcs

     total cpu time spent up to now is        0.1 secs

     Self-consistent Calculation

     iteration #  1     ecut=    40.00 Ry     beta= 0.50
     Davidson diagonalization with overlap
     ethr =  1.00E-02,  avg # of iterations =  1.7

     Threshold (ethr) on eigenvalues was too large:
     Diagonalizing with lowered threshold

     Davidson diagonalization with overlap
     ethr =  2.95E-04,  avg # of iterations =  2.6

     total cpu time spent up to now is        0.2 secs

     total energy              =     -15.89097803 Ry
     Harris-Foulkes estimate   =     -15.89483873 Ry
     estimated scf accuracy    <       0.02737385 Ry

     iteration #  2     ecut=    40.00 Ry     beta= 0.50
     Davidson diagonalization with overlap
     ethr =  3.42E-04,  avg # of iterations =  1.0

     total cpu time spent up to now is        0.3 secs

     total energy              =     -15.89023251 Ry
     Harris-Foulkes estimate   =     -15.89121564 Ry
     estimated scf accuracy    <       0.00598611 Ry

     iteration #  3     ecut=    40.00 Ry     beta= 0.50
     Davidson diagonalization with overlap
     ethr =  7.48E-05,  avg # of iterations =  1.0

     total cpu time spent up to now is        0.4 secs

     total energy              =     -15.89036592 Ry
     Harris-Foulkes estimate   =     -15.89038235 Ry
     estimated scf accuracy    <       0.00003654 Ry

     iteration #  4     ecut=    40.00 Ry     beta= 0.50
     Davidson diagonalization with overlap
     ethr =  4.57E-07,  avg # of iterations =  3.0

     total cpu time spent up to now is        0.5 secs

     total energy              =     -15.89038909 Ry
     Harris-Foulkes estimate   =     -15.89038987 Ry
     estimated scf accuracy    <       0.00000177 Ry

     iteration #  5     ecut=    40.00 Ry     beta= 0.50
     Davidson diagonalization with overlap
     ethr =  2.21E-08,  avg # of iterations =  2.1

     total cpu time spent up to now is        0.5 secs

     End of self-consistent calculation

          k = 0.0000 0.0000 0.0000 (   893 PWs)   bands (ev):

    -5.7356   9.9475   9.9475   9.9475

          k = 0.1414 0.1414-0.1414 (   914 PWs)   bands (ev):

    -5.1325   5.6038   8.9611   8.9611

          k = 0.2828 0.2828-0.2828 (   899 PWs)   bands (ev):

    -3.4526   1.0919   8.1154   8.1154

          k = 0.2828 0.0000 0.0000 (   901 PWs)   bands (ev):

    -4.9253   6.4481   7.5272   7.5272

          k = 0.4243 0.1414-0.1414 (   893 PWs)   bands (ev):

    -3.5400   2.5546   5.9421   6.7712

          k =-0.1414-0.4243 0.4243 (   905 PWs)   bands (ev):

    -2.3775   0.5851   4.7814   7.2035

          k = 0.0000-0.2828 0.2828 (   909 PWs)   bands (ev):

    -4.1362   3.7307   5.2794   8.5579

          k = 0.5657 0.0000 0.0000 (   902 PWs)   bands (ev):

    -2.4712   1.5362   5.7371   5.7371

          k = 0.0000-0.5657 0.5657 (   904 PWs)   bands (ev):

    -0.8724  -0.1630   3.7169   5.9129

          k =-0.1414-0.4243 0.7071 (   902 PWs)   bands (ev):

    -1.8762   1.0237   3.8646   5.2551

     highest occupied level (ev):     9.9475

!    total energy              =     -15.89038927 Ry
     Harris-Foulkes estimate   =     -15.89038926 Ry
     estimated scf accuracy    <       0.00000005 Ry

     The total energy is the sum of the following terms:

     one-electron contribution =       6.53923070 Ry
     hartree contribution      =       0.87225941 Ry
     xc contribution           =      -5.05822654 Ry
     ewald contribution        =     -18.24365285 Ry

     convergence has been achieved in   5 iterations

     Forces acting on atoms (cartesian axes, Ry/au):

     atom    1 type  1   force =    -0.00000000    0.00000000    0.00000000
     atom    2 type  1   force =     0.00000000   -0.00000000   -0.00000000

     Total force =     0.000000     Total SCF correction =     0.000000


     Computing stress (Cartesian axis) and pressure

          total   stress  (Ry/bohr**3)                   (kbar)     P=  537.24
   0.00365205   0.00000000   0.00000000        537.24      0.00      0.00
   0.00000000   0.00365205   0.00000000          0.00    537.24      0.00
   0.00000000   0.00000000   0.00365205          0.00      0.00    537.24


     init_run     :      0.06s CPU      0.07s WALL (       1 calls)
     electrons    :      0.42s CPU      0.42s WALL (       1 calls)
     forces       :      0.01s CPU      0.01s WALL (       1 calls)
     stress       :      0.04s CPU      0.04s WALL (       1 calls)

     Called by init_run:
     wfcinit      :      0.04s CPU      0.05s WALL (       1 calls)
     potinit      :      0.00s CPU      0.00s WALL (       1 calls)
     hinit0       :      0.01s CPU      0.02s WALL (       1 calls)

     Called by electrons:
     c_bands      :      0.32s CPU      0.33s WALL (       6 calls)
     sum_band     :      0.07s CPU      0.07s WALL (       6 calls)
     v_of_rho     :      0.01s CPU      0.01s WALL (       6 calls)
     mix_rho      :      0.01s CPU      0.01s WALL (       6 calls)

     Called by c_bands:
     init_us_2    :      0.02s CPU      0.02s WALL (     150 calls)
     cegterg      :      0.30s CPU      0.31s WALL (      60 calls)

     Called by sum_band:

     Called by *egterg:
     h_psi        :      0.28s CPU      0.29s WALL (     184 calls)
     g_psi        :      0.00s CPU      0.00s WALL (     114 calls)
     cdiaghg      :      0.01s CPU      0.01s WALL (     164 calls)

     Called by h_psi:
     h_psi:pot    :      0.28s CPU      0.29s WALL (     184 calls)
     h_psi:calbec :      0.01s CPU      0.01s WALL (     184 calls)
     vloc_psi     :      0.26s CPU      0.27s WALL (     184 calls)
     add_vuspsi   :      0.01s CPU      0.01s WALL (     184 calls)

     General routines
     calbec       :      0.01s CPU      0.01s WALL (     234 calls)
     fft          :      0.01s CPU      0.01s WALL (      23 calls)
     ffts         :      0.00s CPU      0.00s WALL (       6 calls)
     fftw         :      0.22s CPU      0.23s WALL (    1618 calls)

     Parallel routines

     PWSCF        :      0.56s CPU      0.58s WALL


   This run was terminated on:   3:49:35   7Oct2020            

=------------------------------------------------------------------------------=
   JOB DONE.
=------------------------------------------------------------------------------=
