
     Program PWSCF v.6.4.1 starts on  7Oct2020 at  4: 4: 6 

     This program is part of the open-source Quantum ESPRESSO suite
     for quantum simulation of materials; please cite
         "P. Giannozzi et al., J. Phys.:Condens. Matter 21 395502 (2009);
         "P. Giannozzi et al., J. Phys.:Condens. Matter 29 465901 (2017);
          URL http://www.quantum-espresso.org", 
     in publications or presentations arising from this work. More details at
     http://www.quantum-espresso.org/quote

     Parallel version (MPI), running on     1 processors

     MPI processes distributed on     1 nodes
     Waiting for input...
     Reading input from standard input
Warning: card &IONS ignored
Warning: card / ignored
Warning: card &CELL ignored
Warning: card / ignored

     Current dimensions of program PWSCF are:
     Max number of different atomic species (ntypx) = 10
     Max number of k-points (npk) =  40000
     Max angular momentum in pseudopotentials (lmaxx) =  3

     Subspace diagonalization in iterative solution of the eigenvalue problem:
     a serial algorithm will be used

     Message from routine setup:
     DEPRECATED: symmetry with ibrav=0, use correct ibrav instead

     G-vector sticks info
     --------------------
     sticks:   dense  smooth     PW     G-vecs:    dense   smooth      PW
     Sum         613     613    199                10081    10081    1807



     bravais-lattice index     =            0
     lattice parameter (alat)  =       7.4829  a.u.
     unit-cell volume          =     296.2789 (a.u.)^3
     number of atoms/cell      =            2
     number of atomic types    =            1
     number of electrons       =         8.00
     number of Kohn-Sham states=            4
     kinetic-energy cutoff     =      40.0000  Ry
     charge density cutoff     =     160.0000  Ry
     convergence threshold     =      1.0E-07
     mixing beta               =       0.5000
     number of iterations used =            8  plain     mixing
     Exchange-correlation      = SLA PZ NOGX NOGC ( 1  1  0  0 0 0)

     celldm(1)=   7.482934  celldm(2)=   0.000000  celldm(3)=   0.000000
     celldm(4)=   0.000000  celldm(5)=   0.000000  celldm(6)=   0.000000

     crystal axes: (cart. coord. in units of alat)
               a(1) = (   0.000000   0.707107   0.707107 )  
               a(2) = (   0.707107   0.000000   0.707107 )  
               a(3) = (   0.707107   0.707107   0.000000 )  

     reciprocal axes: (cart. coord. in units 2 pi/alat)
               b(1) = ( -0.707107  0.707107  0.707107 )  
               b(2) = (  0.707107 -0.707107  0.707107 )  
               b(3) = (  0.707107  0.707107 -0.707107 )  


     PseudoPot. # 1 for Ge read from file:
     /home/modeler/qe_pseudo/Ge.pz-bhs.UPF
     MD5 check sum: 4f8fee77de72fb640d24dcbf01bda005
     Pseudo is Norm-conserving, Zval =  4.0
     Generated by new atomic code, or converted to UPF format
     Using radial grid of  291 points,  2 beta functions with: 
                l(1) =   0
                l(2) =   1

     atomic species   valence    mass     pseudopotential
        Ge             4.00    72.63000     Ge( 1.00)

     48 Sym. Ops., with inversion, found (24 have fractional translation)



   Cartesian axes

     site n.     atom                  positions (alat units)
         1           Ge  tau(   1) = (   0.0000000   0.0000000   0.0000000  )
         2           Ge  tau(   2) = (   0.3535534   0.3535534   0.3535534  )

     number of k points=    10
                       cart. coord. in units 2pi/alat
        k(    1) = (   0.0000000   0.0000000   0.0000000), wk =   0.0160000
        k(    2) = (   0.1414214   0.1414214  -0.1414214), wk =   0.1280000
        k(    3) = (   0.2828427   0.2828427  -0.2828427), wk =   0.1280000
        k(    4) = (   0.2828427   0.0000000   0.0000000), wk =   0.0960000
        k(    5) = (   0.4242641   0.1414214  -0.1414214), wk =   0.3840000
        k(    6) = (  -0.1414214  -0.4242641   0.4242641), wk =   0.3840000
        k(    7) = (   0.0000000  -0.2828427   0.2828427), wk =   0.1920000
        k(    8) = (   0.5656854   0.0000000   0.0000000), wk =   0.0960000
        k(    9) = (   0.0000000  -0.5656854   0.5656854), wk =   0.1920000
        k(   10) = (  -0.1414214  -0.4242641   0.7071068), wk =   0.3840000

     Dense  grid:    10081 G-vectors     FFT dimensions: (  32,  32,  32)

     Estimated max dynamical RAM per process >       8.18 MB

     Initial potential from superposition of free atoms

     starting charge    6.99990, renormalised to    8.00000
     Starting wfcs are    8 randomized atomic wfcs

     total cpu time spent up to now is        0.1 secs

     Self-consistent Calculation

     iteration #  1     ecut=    40.00 Ry     beta= 0.50
     Davidson diagonalization with overlap
     ethr =  1.00E-02,  avg # of iterations =  1.3

     Threshold (ethr) on eigenvalues was too large:
     Diagonalizing with lowered threshold

     Davidson diagonalization with overlap
     ethr =  2.93E-04,  avg # of iterations =  2.8

     total cpu time spent up to now is        0.3 secs

     total energy              =     -16.00841763 Ry
     Harris-Foulkes estimate   =     -16.01193847 Ry
     estimated scf accuracy    <       0.02539885 Ry

     iteration #  2     ecut=    40.00 Ry     beta= 0.50
     Davidson diagonalization with overlap
     ethr =  3.17E-04,  avg # of iterations =  1.0

     total cpu time spent up to now is        0.3 secs

     total energy              =     -16.00737222 Ry
     Harris-Foulkes estimate   =     -16.00849724 Ry
     estimated scf accuracy    <       0.00604908 Ry

     iteration #  3     ecut=    40.00 Ry     beta= 0.50
     Davidson diagonalization with overlap
     ethr =  7.56E-05,  avg # of iterations =  1.0

     total cpu time spent up to now is        0.4 secs

     total energy              =     -16.00744125 Ry
     Harris-Foulkes estimate   =     -16.00744446 Ry
     estimated scf accuracy    <       0.00000616 Ry

     iteration #  4     ecut=    40.00 Ry     beta= 0.50
     Davidson diagonalization with overlap
     ethr =  7.70E-08,  avg # of iterations =  4.5

     total cpu time spent up to now is        0.5 secs

     total energy              =     -16.00746575 Ry
     Harris-Foulkes estimate   =     -16.00746574 Ry
     estimated scf accuracy    <       0.00000018 Ry

     iteration #  5     ecut=    40.00 Ry     beta= 0.50
     Davidson diagonalization with overlap
     ethr =  2.28E-09,  avg # of iterations =  3.0

     total cpu time spent up to now is        0.6 secs

     End of self-consistent calculation

          k = 0.0000 0.0000 0.0000 (  1243 PWs)   bands (ev):

    -7.0482   5.7229   5.7229   5.7229

          k = 0.1414 0.1414-0.1414 (  1272 PWs)   bands (ev):

    -6.5879   1.9458   5.0560   5.0560

          k = 0.2828 0.2828-0.2828 (  1263 PWs)   bands (ev):

    -5.3921  -1.3460   4.4209   4.4209

          k = 0.2828 0.0000 0.0000 (  1295 PWs)   bands (ev):

    -6.4268   2.0008   4.1025   4.1025

          k = 0.4243 0.1414-0.1414 (  1270 PWs)   bands (ev):

    -5.4056  -0.6315   2.7866   3.5392

          k =-0.1414-0.4243 0.4243 (  1267 PWs)   bands (ev):

    -4.6498  -1.9076   1.9581   3.8165

          k = 0.0000-0.2828 0.2828 (  1267 PWs)   bands (ev):

    -5.8453   0.2019   2.5201   4.7367

          k = 0.5657 0.0000 0.0000 (  1262 PWs)   bands (ev):

    -4.5885  -1.6707   2.8027   2.8027

          k = 0.0000-0.5657 0.5657 (  1260 PWs)   bands (ev):

    -3.5240  -2.8693   1.5070   2.9210

          k =-0.1414-0.4243 0.7071 (  1261 PWs)   bands (ev):

    -4.2198  -2.0467   1.5652   2.5672

     highest occupied level (ev):     5.7229

!    total energy              =     -16.00746577 Ry
     Harris-Foulkes estimate   =     -16.00746578 Ry
     estimated scf accuracy    <       0.00000002 Ry

     The total energy is the sum of the following terms:

     one-electron contribution =       3.79907706 Ry
     hartree contribution      =       1.16736494 Ry
     xc contribution           =      -4.68493200 Ry
     ewald contribution        =     -16.28897577 Ry

     convergence has been achieved in   5 iterations

     Forces acting on atoms (cartesian axes, Ry/au):

     atom    1 type  1   force =    -0.00000000   -0.00000000    0.00000000
     atom    2 type  1   force =     0.00000000    0.00000000   -0.00000000

     Total force =     0.000000     Total SCF correction =     0.000000


     Computing stress (Cartesian axis) and pressure

          total   stress  (Ry/bohr**3)                   (kbar)     P=    4.80
   0.00003264  -0.00000000  -0.00000000          4.80     -0.00     -0.00
  -0.00000000   0.00003264  -0.00000000         -0.00      4.80     -0.00
  -0.00000000  -0.00000000   0.00003264         -0.00     -0.00      4.80


     init_run     :      0.08s CPU      0.08s WALL (       1 calls)
     electrons    :      0.49s CPU      0.51s WALL (       1 calls)
     forces       :      0.01s CPU      0.01s WALL (       1 calls)
     stress       :      0.05s CPU      0.05s WALL (       1 calls)

     Called by init_run:
     wfcinit      :      0.05s CPU      0.05s WALL (       1 calls)
     potinit      :      0.00s CPU      0.00s WALL (       1 calls)
     hinit0       :      0.02s CPU      0.02s WALL (       1 calls)

     Called by electrons:
     c_bands      :      0.39s CPU      0.41s WALL (       6 calls)
     sum_band     :      0.08s CPU      0.08s WALL (       6 calls)
     v_of_rho     :      0.01s CPU      0.01s WALL (       6 calls)
     mix_rho      :      0.01s CPU      0.01s WALL (       6 calls)

     Called by c_bands:
     init_us_2    :      0.03s CPU      0.03s WALL (     150 calls)
     cegterg      :      0.37s CPU      0.38s WALL (      60 calls)

     Called by sum_band:

     Called by *egterg:
     h_psi        :      0.34s CPU      0.35s WALL (     206 calls)
     g_psi        :      0.00s CPU      0.00s WALL (     136 calls)
     cdiaghg      :      0.01s CPU      0.01s WALL (     186 calls)

     Called by h_psi:
     h_psi:pot    :      0.33s CPU      0.34s WALL (     206 calls)
     h_psi:calbec :      0.02s CPU      0.02s WALL (     206 calls)
     vloc_psi     :      0.30s CPU      0.31s WALL (     206 calls)
     add_vuspsi   :      0.01s CPU      0.02s WALL (     206 calls)

     General routines
     calbec       :      0.02s CPU      0.02s WALL (     256 calls)
     fft          :      0.01s CPU      0.01s WALL (      23 calls)
     ffts         :      0.00s CPU      0.00s WALL (       6 calls)
     fftw         :      0.26s CPU      0.27s WALL (    1714 calls)

     Parallel routines

     PWSCF        :      0.66s CPU      0.69s WALL


   This run was terminated on:   4: 4: 7   7Oct2020            

=------------------------------------------------------------------------------=
   JOB DONE.
=------------------------------------------------------------------------------=
