
     Program PWSCF v.6.4.1 starts on  7Oct2020 at  0:37:54 

     This program is part of the open-source Quantum ESPRESSO suite
     for quantum simulation of materials; please cite
         "P. Giannozzi et al., J. Phys.:Condens. Matter 21 395502 (2009);
         "P. Giannozzi et al., J. Phys.:Condens. Matter 29 465901 (2017);
          URL http://www.quantum-espresso.org", 
     in publications or presentations arising from this work. More details at
     http://www.quantum-espresso.org/quote

     Parallel version (MPI), running on     1 processors

     MPI processes distributed on     1 nodes
     Waiting for input...
     Reading input from standard input
Warning: card &IONS ignored
Warning: card / ignored
Warning: card &CELL ignored
Warning: card / ignored

     Current dimensions of program PWSCF are:
     Max number of different atomic species (ntypx) = 10
     Max number of k-points (npk) =  40000
     Max angular momentum in pseudopotentials (lmaxx) =  3

     Subspace diagonalization in iterative solution of the eigenvalue problem:
     a serial algorithm will be used

     Message from routine setup:
     DEPRECATED: symmetry with ibrav=0, use correct ibrav instead

     G-vector sticks info
     --------------------
     sticks:   dense  smooth     PW     G-vecs:    dense   smooth      PW
     Sum          61      61     31                  331      331     113



     bravais-lattice index     =            0
     lattice parameter (alat)  =       6.6812  a.u.
     unit-cell volume          =     210.8855 (a.u.)^3
     number of atoms/cell      =            2
     number of atomic types    =            1
     number of electrons       =         8.00
     number of Kohn-Sham states=            4
     kinetic-energy cutoff     =       5.0000  Ry
     charge density cutoff     =      20.0000  Ry
     convergence threshold     =      1.0E-07
     mixing beta               =       0.5000
     number of iterations used =            8  plain     mixing
     Exchange-correlation      = SLA PZ NOGX NOGC ( 1  1  0  0 0 0)

     celldm(1)=   6.681191  celldm(2)=   0.000000  celldm(3)=   0.000000
     celldm(4)=   0.000000  celldm(5)=   0.000000  celldm(6)=   0.000000

     crystal axes: (cart. coord. in units of alat)
               a(1) = (   0.000000   0.707107   0.707107 )  
               a(2) = (   0.707107   0.000000   0.707107 )  
               a(3) = (   0.707107   0.707107   0.000000 )  

     reciprocal axes: (cart. coord. in units 2 pi/alat)
               b(1) = ( -0.707107  0.707107  0.707107 )  
               b(2) = (  0.707107 -0.707107  0.707107 )  
               b(3) = (  0.707107  0.707107 -0.707107 )  


     PseudoPot. # 1 for Ge read from file:
     /home/modeler/qe_pseudo/Ge.pz-bhs.UPF
     MD5 check sum: 4f8fee77de72fb640d24dcbf01bda005
     Pseudo is Norm-conserving, Zval =  4.0
     Generated by new atomic code, or converted to UPF format
     Using radial grid of  291 points,  2 beta functions with: 
                l(1) =   0
                l(2) =   1

     atomic species   valence    mass     pseudopotential
        Ge             4.00    72.63000     Ge( 1.00)

      4 Sym. Ops. (no inversion) found



   Cartesian axes

     site n.     atom                  positions (alat units)
         1           Ge  tau(   1) = (   0.0000000   0.0000000   0.0707107  )
         2           Ge  tau(   2) = (   0.3535534   0.3535534   0.3535534  )

     number of k points=    18
                       cart. coord. in units 2pi/alat
        k(    1) = (   0.0000000   0.0000000   0.0000000), wk =   0.0312500
        k(    2) = (   0.1767767   0.1767767  -0.1767767), wk =   0.1250000
        k(    3) = (  -0.3535534  -0.3535534   0.3535534), wk =   0.0625000
        k(    4) = (   0.3535534   0.0000000   0.0000000), wk =   0.1250000
        k(    5) = (  -0.1767767  -0.5303301   0.5303301), wk =   0.2500000
        k(    6) = (   0.0000000  -0.3535534   0.3535534), wk =   0.2500000
        k(    7) = (  -0.7071068   0.0000000   0.0000000), wk =   0.0625000
        k(    8) = (  -0.7071068   0.3535534   0.0000000), wk =   0.1250000
        k(    9) = (   0.1767767  -0.1767767  -0.1767767), wk =   0.1250000
        k(   10) = (  -0.3535534   0.3535534   0.3535534), wk =   0.0625000
        k(   11) = (   0.0000000   0.0000000   0.3535534), wk =   0.0625000
        k(   12) = (  -0.5303301   0.1767767   0.5303301), wk =   0.2500000
        k(   13) = (   0.5303301   0.5303301  -0.1767767), wk =   0.1250000
        k(   14) = (  -0.5303301   0.5303301   0.1767767), wk =   0.1250000
        k(   15) = (   0.3535534   0.3535534   0.0000000), wk =   0.0625000
        k(   16) = (  -0.3535534   0.3535534   0.0000000), wk =   0.0625000
        k(   17) = (   0.0000000   0.0000000  -0.7071068), wk =   0.0312500
        k(   18) = (   0.7071068  -0.0000000   0.3535534), wk =   0.0625000

     Dense  grid:      331 G-vectors     FFT dimensions: (   9,   9,   9)

     Estimated max dynamical RAM per process >       0.30 MB

     Initial potential from superposition of free atoms

     starting charge    6.99990, renormalised to    8.00000
     Starting wfcs are    8 randomized atomic wfcs

     total cpu time spent up to now is        0.0 secs

     Self-consistent Calculation

     iteration #  1     ecut=     5.00 Ry     beta= 0.50
     Davidson diagonalization with overlap
     ethr =  1.00E-02,  avg # of iterations =  2.0

     Threshold (ethr) on eigenvalues was too large:
     Diagonalizing with lowered threshold

     Davidson diagonalization with overlap
     ethr =  3.31E-04,  avg # of iterations =  1.5

     total cpu time spent up to now is        0.1 secs

     total energy              =     -15.65895228 Ry
     Harris-Foulkes estimate   =     -15.65866740 Ry
     estimated scf accuracy    <       0.02638583 Ry

     iteration #  2     ecut=     5.00 Ry     beta= 0.50
     Davidson diagonalization with overlap
     ethr =  3.30E-04,  avg # of iterations =  1.0

     total cpu time spent up to now is        0.1 secs

     total energy              =     -15.65920501 Ry
     Harris-Foulkes estimate   =     -15.65905622 Ry
     estimated scf accuracy    <       0.00650741 Ry

     iteration #  3     ecut=     5.00 Ry     beta= 0.50
     Davidson diagonalization with overlap
     ethr =  8.13E-05,  avg # of iterations =  1.0

     total cpu time spent up to now is        0.1 secs

     total energy              =     -15.65925066 Ry
     Harris-Foulkes estimate   =     -15.65925430 Ry
     estimated scf accuracy    <       0.00000751 Ry

     iteration #  4     ecut=     5.00 Ry     beta= 0.50
     Davidson diagonalization with overlap
     ethr =  9.38E-08,  avg # of iterations =  3.8

     total cpu time spent up to now is        0.1 secs

     total energy              =     -15.65985535 Ry
     Harris-Foulkes estimate   =     -15.65986612 Ry
     estimated scf accuracy    <       0.00006922 Ry

     iteration #  5     ecut=     5.00 Ry     beta= 0.50
     Davidson diagonalization with overlap
     ethr =  9.38E-08,  avg # of iterations =  1.4

     total cpu time spent up to now is        0.1 secs

     total energy              =     -15.65987053 Ry
     Harris-Foulkes estimate   =     -15.65985577 Ry
     estimated scf accuracy    <       0.00004357 Ry

     iteration #  6     ecut=     5.00 Ry     beta= 0.50
     Davidson diagonalization with overlap
     ethr =  9.38E-08,  avg # of iterations =  2.0

     total cpu time spent up to now is        0.1 secs

     total energy              =     -15.65983285 Ry
     Harris-Foulkes estimate   =     -15.65987125 Ry
     estimated scf accuracy    <       0.00008181 Ry

     iteration #  7     ecut=     5.00 Ry     beta= 0.50
     Davidson diagonalization with overlap
     ethr =  9.38E-08,  avg # of iterations =  2.6

     total cpu time spent up to now is        0.1 secs

     total energy              =     -15.65983960 Ry
     Harris-Foulkes estimate   =     -15.65984018 Ry
     estimated scf accuracy    <       0.00000128 Ry

     iteration #  8     ecut=     5.00 Ry     beta= 0.50
     Davidson diagonalization with overlap
     ethr =  1.59E-08,  avg # of iterations =  2.4

     total cpu time spent up to now is        0.1 secs

     End of self-consistent calculation

          k = 0.0000 0.0000 0.0000 (    51 PWs)   bands (ev):

    -5.7272   8.4118  10.2496  11.6067

          k = 0.1768 0.1768-0.1768 (    43 PWs)   bands (ev):

    -4.6692   4.1731   8.3040   9.4916

          k =-0.3536-0.3536 0.3536 (    40 PWs)   bands (ev):

    -2.2966  -0.3674   7.5041   8.8250

          k = 0.3536 0.0000 0.0000 (    43 PWs)   bands (ev):

    -4.3655   5.0710   7.0465   7.5329

          k =-0.1768-0.5303 0.5303 (    41 PWs)   bands (ev):

    -2.0927   0.7929   5.1459   6.6393

          k = 0.0000-0.3536 0.3536 (    38 PWs)   bands (ev):

    -3.1170   2.7605   4.2331   8.0047

          k =-0.7071 0.0000 0.0000 (    40 PWs)   bands (ev):

    -0.4715  -0.4713   5.6687   5.6690

          k =-0.7071 0.3536 0.0000 (    44 PWs)   bands (ev):

    -0.7960   0.5999   3.6242   4.4600

          k = 0.1768-0.1768-0.1768 (    43 PWs)   bands (ev):

    -4.7321   4.9814   7.5622   9.4726

          k =-0.3536 0.3536 0.3536 (    40 PWs)   bands (ev):

    -2.9271   0.9371   6.9908   8.9054

          k = 0.0000 0.0000 0.3536 (    43 PWs)   bands (ev):

    -4.3734   5.8254   6.2284   7.3645

          k =-0.5303 0.1768 0.5303 (    41 PWs)   bands (ev):

    -2.4685   2.0760   4.0992   6.7599

          k = 0.5303 0.5303-0.1768 (    41 PWs)   bands (ev):

    -2.1539   1.1721   4.3848   6.9298

          k =-0.5303 0.5303 0.1768 (    41 PWs)   bands (ev):

    -2.4822   1.8994   5.1768   5.8022

          k = 0.3536 0.3536 0.0000 (    38 PWs)   bands (ev):

    -2.9512   1.9799   4.4657   8.5184

          k =-0.3536 0.3536 0.0000 (    38 PWs)   bands (ev):

    -3.2497   3.7245   4.2627   6.8877

          k = 0.0000 0.0000-0.7071 (    40 PWs)   bands (ev):

    -1.1484   0.5463   4.9579   5.8668

          k = 0.7071-0.0000 0.3536 (    44 PWs)   bands (ev):

    -0.2233  -0.2231   4.1807   4.1810

     highest occupied level (ev):    11.6067

!    total energy              =     -15.65983983 Ry
     Harris-Foulkes estimate   =     -15.65983986 Ry
     estimated scf accuracy    <       0.00000004 Ry

     The total energy is the sum of the following terms:

     one-electron contribution =       6.73735400 Ry
     hartree contribution      =       0.80859432 Ry
     xc contribution           =      -5.03097878 Ry
     ewald contribution        =     -18.17480937 Ry

     convergence has been achieved in   8 iterations

     Forces acting on atoms (cartesian axes, Ry/au):

     atom    1 type  1   force =     0.00000000   -0.00000000   -0.24524527
     atom    2 type  1   force =    -0.00000000    0.00000000    0.24524527

     Total force =     0.346829     Total SCF correction =     0.000049


     Computing stress (Cartesian axis) and pressure

          total   stress  (Ry/bohr**3)                   (kbar)     P=  480.41
   0.00358437   0.00262425   0.00000000        527.28    386.04      0.00
   0.00262425   0.00358437   0.00000000        386.04    527.28      0.00
   0.00000000   0.00000000   0.00262846          0.00      0.00    386.66


     init_run     :      0.01s CPU      0.01s WALL (       1 calls)
     electrons    :      0.06s CPU      0.08s WALL (       1 calls)
     forces       :      0.00s CPU      0.00s WALL (       1 calls)
     stress       :      0.00s CPU      0.00s WALL (       1 calls)

     Called by init_run:
     wfcinit      :      0.01s CPU      0.01s WALL (       1 calls)
     potinit      :      0.00s CPU      0.00s WALL (       1 calls)
     hinit0       :      0.01s CPU      0.01s WALL (       1 calls)

     Called by electrons:
     c_bands      :      0.05s CPU      0.07s WALL (       9 calls)
     sum_band     :      0.00s CPU      0.01s WALL (       9 calls)
     v_of_rho     :      0.00s CPU      0.00s WALL (       9 calls)
     mix_rho      :      0.00s CPU      0.00s WALL (       9 calls)

     Called by c_bands:
     init_us_2    :      0.00s CPU      0.00s WALL (     378 calls)
     cegterg      :      0.05s CPU      0.06s WALL (     162 calls)

     Called by sum_band:

     Called by *egterg:
     h_psi        :      0.03s CPU      0.04s WALL (     501 calls)
     g_psi        :      0.00s CPU      0.00s WALL (     321 calls)
     cdiaghg      :      0.01s CPU      0.02s WALL (     465 calls)

     Called by h_psi:
     h_psi:pot    :      0.03s CPU      0.04s WALL (     501 calls)
     h_psi:calbec :      0.00s CPU      0.00s WALL (     501 calls)
     vloc_psi     :      0.02s CPU      0.03s WALL (     501 calls)
     add_vuspsi   :      0.00s CPU      0.00s WALL (     501 calls)

     General routines
     calbec       :      0.00s CPU      0.00s WALL (     591 calls)
     fft          :      0.00s CPU      0.00s WALL (      32 calls)
     ffts         :      0.00s CPU      0.00s WALL (       9 calls)
     fftw         :      0.02s CPU      0.02s WALL (    4238 calls)

     Parallel routines

     PWSCF        :      0.11s CPU      0.13s WALL


   This run was terminated on:   0:37:54   7Oct2020            

=------------------------------------------------------------------------------=
   JOB DONE.
=------------------------------------------------------------------------------=
