
     Program PWSCF v.6.4.1 starts on  7Oct2020 at  4: 4:15 

     This program is part of the open-source Quantum ESPRESSO suite
     for quantum simulation of materials; please cite
         "P. Giannozzi et al., J. Phys.:Condens. Matter 21 395502 (2009);
         "P. Giannozzi et al., J. Phys.:Condens. Matter 29 465901 (2017);
          URL http://www.quantum-espresso.org", 
     in publications or presentations arising from this work. More details at
     http://www.quantum-espresso.org/quote

     Parallel version (MPI), running on     1 processors

     MPI processes distributed on     1 nodes
     Waiting for input...
     Reading input from standard input
Warning: card &IONS ignored
Warning: card / ignored
Warning: card &CELL ignored
Warning: card / ignored

     Current dimensions of program PWSCF are:
     Max number of different atomic species (ntypx) = 10
     Max number of k-points (npk) =  40000
     Max angular momentum in pseudopotentials (lmaxx) =  3

     Subspace diagonalization in iterative solution of the eigenvalue problem:
     a serial algorithm will be used

     Message from routine setup:
     DEPRECATED: symmetry with ibrav=0, use correct ibrav instead

     G-vector sticks info
     --------------------
     sticks:   dense  smooth     PW     G-vecs:    dense   smooth      PW
     Sum         661     661    199                11191    11191    1917



     bravais-lattice index     =            0
     lattice parameter (alat)  =       7.7502  a.u.
     unit-cell volume          =     329.1703 (a.u.)^3
     number of atoms/cell      =            2
     number of atomic types    =            1
     number of electrons       =         8.00
     number of Kohn-Sham states=            4
     kinetic-energy cutoff     =      40.0000  Ry
     charge density cutoff     =     160.0000  Ry
     convergence threshold     =      1.0E-07
     mixing beta               =       0.5000
     number of iterations used =            8  plain     mixing
     Exchange-correlation      = SLA PZ NOGX NOGC ( 1  1  0  0 0 0)

     celldm(1)=   7.750181  celldm(2)=   0.000000  celldm(3)=   0.000000
     celldm(4)=   0.000000  celldm(5)=   0.000000  celldm(6)=   0.000000

     crystal axes: (cart. coord. in units of alat)
               a(1) = (   0.000000   0.707107   0.707107 )  
               a(2) = (   0.707107   0.000000   0.707107 )  
               a(3) = (   0.707107   0.707107   0.000000 )  

     reciprocal axes: (cart. coord. in units 2 pi/alat)
               b(1) = ( -0.707107  0.707107  0.707107 )  
               b(2) = (  0.707107 -0.707107  0.707107 )  
               b(3) = (  0.707107  0.707107 -0.707107 )  


     PseudoPot. # 1 for Ge read from file:
     /home/modeler/qe_pseudo/Ge.pz-bhs.UPF
     MD5 check sum: 4f8fee77de72fb640d24dcbf01bda005
     Pseudo is Norm-conserving, Zval =  4.0
     Generated by new atomic code, or converted to UPF format
     Using radial grid of  291 points,  2 beta functions with: 
                l(1) =   0
                l(2) =   1

     atomic species   valence    mass     pseudopotential
        Ge             4.00    72.63000     Ge( 1.00)

     48 Sym. Ops., with inversion, found (24 have fractional translation)



   Cartesian axes

     site n.     atom                  positions (alat units)
         1           Ge  tau(   1) = (   0.0000000   0.0000000   0.0000000  )
         2           Ge  tau(   2) = (   0.3535534   0.3535534   0.3535534  )

     number of k points=    10
                       cart. coord. in units 2pi/alat
        k(    1) = (   0.0000000   0.0000000   0.0000000), wk =   0.0160000
        k(    2) = (   0.1414214   0.1414214  -0.1414214), wk =   0.1280000
        k(    3) = (   0.2828427   0.2828427  -0.2828427), wk =   0.1280000
        k(    4) = (   0.2828427   0.0000000   0.0000000), wk =   0.0960000
        k(    5) = (   0.4242641   0.1414214  -0.1414214), wk =   0.3840000
        k(    6) = (  -0.1414214  -0.4242641   0.4242641), wk =   0.3840000
        k(    7) = (   0.0000000  -0.2828427   0.2828427), wk =   0.1920000
        k(    8) = (   0.5656854   0.0000000   0.0000000), wk =   0.0960000
        k(    9) = (   0.0000000  -0.5656854   0.5656854), wk =   0.1920000
        k(   10) = (  -0.1414214  -0.4242641   0.7071068), wk =   0.3840000

     Dense  grid:    11191 G-vectors     FFT dimensions: (  32,  32,  32)

     Estimated max dynamical RAM per process >       8.82 MB

     Initial potential from superposition of free atoms

     starting charge    6.99990, renormalised to    8.00000
     Starting wfcs are    8 randomized atomic wfcs

     total cpu time spent up to now is        0.1 secs

     Self-consistent Calculation

     iteration #  1     ecut=    40.00 Ry     beta= 0.50
     Davidson diagonalization with overlap
     ethr =  1.00E-02,  avg # of iterations =  1.2

     Threshold (ethr) on eigenvalues was too large:
     Diagonalizing with lowered threshold

     Davidson diagonalization with overlap
     ethr =  3.18E-04,  avg # of iterations =  2.8

     total cpu time spent up to now is        0.3 secs

     total energy              =     -16.00236350 Ry
     Harris-Foulkes estimate   =     -16.00701153 Ry
     estimated scf accuracy    <       0.02663908 Ry

     iteration #  2     ecut=    40.00 Ry     beta= 0.50
     Davidson diagonalization with overlap
     ethr =  3.33E-04,  avg # of iterations =  1.0

     total cpu time spent up to now is        0.4 secs

     total energy              =     -16.00121144 Ry
     Harris-Foulkes estimate   =     -16.00255382 Ry
     estimated scf accuracy    <       0.00616918 Ry

     iteration #  3     ecut=    40.00 Ry     beta= 0.50
     Davidson diagonalization with overlap
     ethr =  7.71E-05,  avg # of iterations =  1.0

     total cpu time spent up to now is        0.4 secs

     total energy              =     -16.00136433 Ry
     Harris-Foulkes estimate   =     -16.00138490 Ry
     estimated scf accuracy    <       0.00003822 Ry

     iteration #  4     ecut=    40.00 Ry     beta= 0.50
     Davidson diagonalization with overlap
     ethr =  4.78E-07,  avg # of iterations =  3.9

     total cpu time spent up to now is        0.5 secs

     total energy              =     -16.00140691 Ry
     Harris-Foulkes estimate   =     -16.00140905 Ry
     estimated scf accuracy    <       0.00000417 Ry

     iteration #  5     ecut=    40.00 Ry     beta= 0.50
     Davidson diagonalization with overlap
     ethr =  5.21E-08,  avg # of iterations =  2.5

     total cpu time spent up to now is        0.6 secs

     total energy              =     -16.00140757 Ry
     Harris-Foulkes estimate   =     -16.00140765 Ry
     estimated scf accuracy    <       0.00000035 Ry

     iteration #  6     ecut=    40.00 Ry     beta= 0.50
     Davidson diagonalization with overlap
     ethr =  4.35E-09,  avg # of iterations =  2.5

     total cpu time spent up to now is        0.7 secs

     total energy              =     -16.00140757 Ry
     Harris-Foulkes estimate   =     -16.00140763 Ry
     estimated scf accuracy    <       0.00000016 Ry

     iteration #  7     ecut=    40.00 Ry     beta= 0.50
     Davidson diagonalization with overlap
     ethr =  1.96E-09,  avg # of iterations =  1.4

     total cpu time spent up to now is        0.8 secs

     End of self-consistent calculation

          k = 0.0000 0.0000 0.0000 (  1411 PWs)   bands (ev):

    -7.3729   4.3832   4.6842   4.6842

          k = 0.1414 0.1414-0.1414 (  1393 PWs)   bands (ev):

    -6.9535   0.8978   4.0936   4.0936

          k = 0.2828 0.2828-0.2828 (  1422 PWs)   bands (ev):

    -5.8853  -2.0320   3.5156   3.5156

          k = 0.2828 0.0000 0.0000 (  1383 PWs)   bands (ev):

    -6.8058   0.8005   3.2548   3.2548

          k = 0.4243 0.1414-0.1414 (  1403 PWs)   bands (ev):

    -5.8841  -1.5090   2.0356   2.7420

          k =-0.1414-0.4243 0.4243 (  1395 PWs)   bands (ev):

    -5.2239  -2.6151   1.2889   2.9831

          k = 0.0000-0.2828 0.2828 (  1390 PWs)   bands (ev):

    -6.2812  -0.7584   1.8422   3.7994

          k = 0.5657 0.0000 0.0000 (  1391 PWs)   bands (ev):

    -5.1375  -2.5090   2.0803   2.0803

          k = 0.0000-0.5657 0.5657 (  1410 PWs)   bands (ev):

    -4.2004  -3.5785   0.9542   2.1846

          k =-0.1414-0.4243 0.7071 (  1414 PWs)   bands (ev):

    -4.8212  -2.8451   0.9977   1.8954

     highest occupied level (ev):     4.6842

!    total energy              =     -16.00140758 Ry
     Harris-Foulkes estimate   =     -16.00140758 Ry
     estimated scf accuracy    <          6.3E-09 Ry

     The total energy is the sum of the following terms:

     one-electron contribution =       3.03983708 Ry
     hartree contribution      =       1.26947058 Ry
     xc contribution           =      -4.58342829 Ry
     ewald contribution        =     -15.72728695 Ry

     convergence has been achieved in   7 iterations

     Forces acting on atoms (cartesian axes, Ry/au):

     atom    1 type  1   force =     0.00000000    0.00000000    0.00000000
     atom    2 type  1   force =     0.00000000    0.00000000    0.00000000

     Total force =     0.000000     Total SCF correction =     0.000000


     Computing stress (Cartesian axis) and pressure

          total   stress  (Ry/bohr**3)                   (kbar)     P=  -50.58
  -0.00034381  -0.00000000  -0.00000000        -50.58     -0.00     -0.00
  -0.00000000  -0.00034381  -0.00000000         -0.00    -50.58     -0.00
  -0.00000000  -0.00000000  -0.00034381         -0.00     -0.00    -50.58


     init_run     :      0.08s CPU      0.09s WALL (       1 calls)
     electrons    :      0.67s CPU      0.68s WALL (       1 calls)
     forces       :      0.01s CPU      0.01s WALL (       1 calls)
     stress       :      0.05s CPU      0.06s WALL (       1 calls)

     Called by init_run:
     wfcinit      :      0.06s CPU      0.06s WALL (       1 calls)
     potinit      :      0.00s CPU      0.00s WALL (       1 calls)
     hinit0       :      0.02s CPU      0.02s WALL (       1 calls)

     Called by electrons:
     c_bands      :      0.53s CPU      0.53s WALL (       8 calls)
     sum_band     :      0.11s CPU      0.12s WALL (       8 calls)
     v_of_rho     :      0.02s CPU      0.02s WALL (       8 calls)
     mix_rho      :      0.01s CPU      0.01s WALL (       8 calls)

     Called by c_bands:
     init_us_2    :      0.05s CPU      0.05s WALL (     190 calls)
     cegterg      :      0.49s CPU      0.49s WALL (      80 calls)

     Called by sum_band:

     Called by *egterg:
     h_psi        :      0.43s CPU      0.43s WALL (     253 calls)
     g_psi        :      0.01s CPU      0.01s WALL (     163 calls)
     cdiaghg      :      0.01s CPU      0.01s WALL (     233 calls)

     Called by h_psi:
     h_psi:pot    :      0.43s CPU      0.43s WALL (     253 calls)
     h_psi:calbec :      0.02s CPU      0.02s WALL (     253 calls)
     vloc_psi     :      0.38s CPU      0.38s WALL (     253 calls)
     add_vuspsi   :      0.02s CPU      0.02s WALL (     253 calls)

     General routines
     calbec       :      0.03s CPU      0.03s WALL (     303 calls)
     fft          :      0.01s CPU      0.01s WALL (      29 calls)
     ffts         :      0.00s CPU      0.00s WALL (       8 calls)
     fftw         :      0.33s CPU      0.33s WALL (    2124 calls)

     Parallel routines

     PWSCF        :      0.85s CPU      0.87s WALL


   This run was terminated on:   4: 4:16   7Oct2020            

=------------------------------------------------------------------------------=
   JOB DONE.
=------------------------------------------------------------------------------=
