
     Program PWSCF v.6.4.1 starts on  7Oct2020 at  0:38:33 

     This program is part of the open-source Quantum ESPRESSO suite
     for quantum simulation of materials; please cite
         "P. Giannozzi et al., J. Phys.:Condens. Matter 21 395502 (2009);
         "P. Giannozzi et al., J. Phys.:Condens. Matter 29 465901 (2017);
          URL http://www.quantum-espresso.org", 
     in publications or presentations arising from this work. More details at
     http://www.quantum-espresso.org/quote

     Parallel version (MPI), running on     1 processors

     MPI processes distributed on     1 nodes
     Waiting for input...
     Reading input from standard input
Warning: card &IONS ignored
Warning: card / ignored
Warning: card &CELL ignored
Warning: card / ignored

     Current dimensions of program PWSCF are:
     Max number of different atomic species (ntypx) = 10
     Max number of k-points (npk) =  40000
     Max angular momentum in pseudopotentials (lmaxx) =  3

     Subspace diagonalization in iterative solution of the eigenvalue problem:
     a serial algorithm will be used

     Message from routine setup:
     DEPRECATED: symmetry with ibrav=0, use correct ibrav instead

     G-vector sticks info
     --------------------
     sticks:   dense  smooth     PW     G-vecs:    dense   smooth      PW
     Sum         979     979    295                20275    20275    3287



     bravais-lattice index     =            0
     lattice parameter (alat)  =       6.6812  a.u.
     unit-cell volume          =     210.8855 (a.u.)^3
     number of atoms/cell      =            2
     number of atomic types    =            1
     number of electrons       =         8.00
     number of Kohn-Sham states=            4
     kinetic-energy cutoff     =      80.0000  Ry
     charge density cutoff     =     320.0000  Ry
     convergence threshold     =      1.0E-07
     mixing beta               =       0.5000
     number of iterations used =            8  plain     mixing
     Exchange-correlation      = SLA PZ NOGX NOGC ( 1  1  0  0 0 0)

     celldm(1)=   6.681191  celldm(2)=   0.000000  celldm(3)=   0.000000
     celldm(4)=   0.000000  celldm(5)=   0.000000  celldm(6)=   0.000000

     crystal axes: (cart. coord. in units of alat)
               a(1) = (   0.000000   0.707107   0.707107 )  
               a(2) = (   0.707107   0.000000   0.707107 )  
               a(3) = (   0.707107   0.707107   0.000000 )  

     reciprocal axes: (cart. coord. in units 2 pi/alat)
               b(1) = ( -0.707107  0.707107  0.707107 )  
               b(2) = (  0.707107 -0.707107  0.707107 )  
               b(3) = (  0.707107  0.707107 -0.707107 )  


     PseudoPot. # 1 for Ge read from file:
     /home/modeler/qe_pseudo/Ge.pz-bhs.UPF
     MD5 check sum: 4f8fee77de72fb640d24dcbf01bda005
     Pseudo is Norm-conserving, Zval =  4.0
     Generated by new atomic code, or converted to UPF format
     Using radial grid of  291 points,  2 beta functions with: 
                l(1) =   0
                l(2) =   1

     atomic species   valence    mass     pseudopotential
        Ge             4.00    72.63000     Ge( 1.00)

      4 Sym. Ops. (no inversion) found



   Cartesian axes

     site n.     atom                  positions (alat units)
         1           Ge  tau(   1) = (   0.0000000   0.0000000   0.0707107  )
         2           Ge  tau(   2) = (   0.3535534   0.3535534   0.3535534  )

     number of k points=    18
                       cart. coord. in units 2pi/alat
        k(    1) = (   0.0000000   0.0000000   0.0000000), wk =   0.0312500
        k(    2) = (   0.1767767   0.1767767  -0.1767767), wk =   0.1250000
        k(    3) = (  -0.3535534  -0.3535534   0.3535534), wk =   0.0625000
        k(    4) = (   0.3535534   0.0000000   0.0000000), wk =   0.1250000
        k(    5) = (  -0.1767767  -0.5303301   0.5303301), wk =   0.2500000
        k(    6) = (   0.0000000  -0.3535534   0.3535534), wk =   0.2500000
        k(    7) = (  -0.7071068   0.0000000   0.0000000), wk =   0.0625000
        k(    8) = (  -0.7071068   0.3535534   0.0000000), wk =   0.1250000
        k(    9) = (   0.1767767  -0.1767767  -0.1767767), wk =   0.1250000
        k(   10) = (  -0.3535534   0.3535534   0.3535534), wk =   0.0625000
        k(   11) = (   0.0000000   0.0000000   0.3535534), wk =   0.0625000
        k(   12) = (  -0.5303301   0.1767767   0.5303301), wk =   0.2500000
        k(   13) = (   0.5303301   0.5303301  -0.1767767), wk =   0.1250000
        k(   14) = (  -0.5303301   0.5303301   0.1767767), wk =   0.1250000
        k(   15) = (   0.3535534   0.3535534   0.0000000), wk =   0.0625000
        k(   16) = (  -0.3535534   0.3535534   0.0000000), wk =   0.0625000
        k(   17) = (   0.0000000   0.0000000  -0.7071068), wk =   0.0312500
        k(   18) = (   0.7071068  -0.0000000   0.3535534), wk =   0.0625000

     Dense  grid:    20275 G-vectors     FFT dimensions: (  40,  40,  40)

     Estimated max dynamical RAM per process >      17.48 MB

     Initial potential from superposition of free atoms

     starting charge    6.99990, renormalised to    8.00000
     Starting wfcs are    8 randomized atomic wfcs

     total cpu time spent up to now is        0.5 secs

     Self-consistent Calculation

     iteration #  1     ecut=    80.00 Ry     beta= 0.50
     Davidson diagonalization with overlap
     ethr =  1.00E-02,  avg # of iterations =  2.0

     Threshold (ethr) on eigenvalues was too large:
     Diagonalizing with lowered threshold

     Davidson diagonalization with overlap
     ethr =  3.28E-04,  avg # of iterations =  2.8

     total cpu time spent up to now is        1.7 secs

     total energy              =     -15.82400468 Ry
     Harris-Foulkes estimate   =     -15.82839479 Ry
     estimated scf accuracy    <       0.02994721 Ry

     iteration #  2     ecut=    80.00 Ry     beta= 0.50
     Davidson diagonalization with overlap
     ethr =  3.74E-04,  avg # of iterations =  1.0

     total cpu time spent up to now is        2.3 secs

     total energy              =     -15.82320165 Ry
     Harris-Foulkes estimate   =     -15.82431333 Ry
     estimated scf accuracy    <       0.00663541 Ry

     iteration #  3     ecut=    80.00 Ry     beta= 0.50
     Davidson diagonalization with overlap
     ethr =  8.29E-05,  avg # of iterations =  1.0

     total cpu time spent up to now is        2.8 secs

     total energy              =     -15.82341221 Ry
     Harris-Foulkes estimate   =     -15.82343732 Ry
     estimated scf accuracy    <       0.00005087 Ry

     iteration #  4     ecut=    80.00 Ry     beta= 0.50
     Davidson diagonalization with overlap
     ethr =  6.36E-07,  avg # of iterations =  3.5

     total cpu time spent up to now is        3.7 secs

     total energy              =     -15.82347141 Ry
     Harris-Foulkes estimate   =     -15.82347332 Ry
     estimated scf accuracy    <       0.00000455 Ry

     iteration #  5     ecut=    80.00 Ry     beta= 0.50
     Davidson diagonalization with overlap
     ethr =  5.68E-08,  avg # of iterations =  2.3

     total cpu time spent up to now is        4.4 secs

     total energy              =     -15.82347190 Ry
     Harris-Foulkes estimate   =     -15.82347209 Ry
     estimated scf accuracy    <       0.00000051 Ry

     iteration #  6     ecut=    80.00 Ry     beta= 0.50
     Davidson diagonalization with overlap
     ethr =  6.40E-09,  avg # of iterations =  2.1

     total cpu time spent up to now is        5.2 secs

     total energy              =     -15.82347192 Ry
     Harris-Foulkes estimate   =     -15.82347204 Ry
     estimated scf accuracy    <       0.00000023 Ry

     iteration #  7     ecut=    80.00 Ry     beta= 0.50
     Davidson diagonalization with overlap
     ethr =  2.90E-09,  avg # of iterations =  2.0

     total cpu time spent up to now is        5.8 secs

     End of self-consistent calculation

          k = 0.0000 0.0000 0.0000 (  2637 PWs)   bands (ev):

    -5.7937   8.4605  10.2331  11.5151

          k = 0.1768 0.1768-0.1768 (  2563 PWs)   bands (ev):

    -4.8295   3.7981   8.3277   9.5017

          k =-0.3536-0.3536 0.3536 (  2536 PWs)   bands (ev):

    -2.5762  -0.6129   7.5343   8.8461

          k = 0.3536 0.0000 0.0000 (  2557 PWs)   bands (ev):

    -4.5358   4.6978   7.0436   7.4222

          k =-0.1768-0.5303 0.5303 (  2546 PWs)   bands (ev):

    -2.3107   0.4206   5.0328   6.6189

          k = 0.0000-0.3536 0.3536 (  2548 PWs)   bands (ev):

    -3.3733   2.3303   4.1533   8.0012

          k =-0.7071 0.0000 0.0000 (  2498 PWs)   bands (ev):

    -0.7711  -0.7711   5.6708   5.6708

          k =-0.7071 0.3536 0.0000 (  2520 PWs)   bands (ev):

    -1.1291   0.3033   3.6074   4.4287

          k = 0.1768-0.1768-0.1768 (  2563 PWs)   bands (ev):

    -4.8989   4.7165   7.6201   9.4721

          k =-0.3536 0.3536 0.3536 (  2536 PWs)   bands (ev):

    -3.2245   0.7702   7.0520   8.9159

          k = 0.0000 0.0000 0.3536 (  2557 PWs)   bands (ev):

    -4.5452   5.3609   6.2581   7.3553

          k =-0.5303 0.1768 0.5303 (  2546 PWs)   bands (ev):

    -2.7118   1.7718   3.9745   6.7410

          k = 0.5303 0.5303-0.1768 (  2546 PWs)   bands (ev):

    -2.4139   0.8493   4.2234   6.9163

          k =-0.5303 0.5303 0.1768 (  2546 PWs)   bands (ev):

    -2.7288   1.6209   5.0355   5.8265

          k = 0.3536 0.3536 0.0000 (  2548 PWs)   bands (ev):

    -3.1718   1.4154   4.3842   8.5050

          k =-0.3536 0.3536 0.0000 (  2548 PWs)   bands (ev):

    -3.5377   3.3725   4.1689   6.9245

          k = 0.0000 0.0000-0.7071 (  2498 PWs)   bands (ev):

    -1.5211   0.2981   4.9850   5.8615

          k = 0.7071-0.0000 0.3536 (  2520 PWs)   bands (ev):

    -0.5271  -0.5270   4.1503   4.1504

     highest occupied level (ev):    11.5151

!    total energy              =     -15.82347195 Ry
     Harris-Foulkes estimate   =     -15.82347195 Ry
     estimated scf accuracy    <          2.4E-09 Ry

     The total energy is the sum of the following terms:

     one-electron contribution =       6.52748768 Ry
     hartree contribution      =       0.88771554 Ry
     xc contribution           =      -5.06386584 Ry
     ewald contribution        =     -18.17480932 Ry

     convergence has been achieved in   7 iterations

     Forces acting on atoms (cartesian axes, Ry/au):

     atom    1 type  1   force =     0.00000000    0.00000000   -0.21723332
     atom    2 type  1   force =     0.00000000    0.00000000    0.21723332

     Total force =     0.307214     Total SCF correction =     0.000018


     Computing stress (Cartesian axis) and pressure

          total   stress  (Ry/bohr**3)                   (kbar)     P=  591.02
   0.00428117   0.00220730   0.00000000        629.78    324.70      0.00
   0.00220730   0.00428117   0.00000000        324.70    629.78      0.00
  -0.00000000   0.00000000   0.00349068         -0.00      0.00    513.50


     init_run     :      0.44s CPU      0.45s WALL (       1 calls)
     electrons    :      5.28s CPU      5.32s WALL (       1 calls)
     forces       :      0.04s CPU      0.04s WALL (       1 calls)
     stress       :      0.17s CPU      0.19s WALL (       1 calls)

     Called by init_run:
     wfcinit      :      0.38s CPU      0.39s WALL (       1 calls)
     potinit      :      0.01s CPU      0.01s WALL (       1 calls)
     hinit0       :      0.03s CPU      0.03s WALL (       1 calls)

     Called by electrons:
     c_bands      :      4.23s CPU      4.26s WALL (       8 calls)
     sum_band     :      0.97s CPU      0.97s WALL (       8 calls)
     v_of_rho     :      0.06s CPU      0.06s WALL (       8 calls)
     mix_rho      :      0.03s CPU      0.04s WALL (       8 calls)

     Called by c_bands:
     init_us_2    :      0.16s CPU      0.16s WALL (     342 calls)
     cegterg      :      4.10s CPU      4.13s WALL (     144 calls)

     Called by sum_band:

     Called by *egterg:
     h_psi        :      4.11s CPU      4.15s WALL (     463 calls)
     g_psi        :      0.02s CPU      0.02s WALL (     301 calls)
     cdiaghg      :      0.03s CPU      0.03s WALL (     427 calls)

     Called by h_psi:
     h_psi:pot    :      4.10s CPU      4.13s WALL (     463 calls)
     h_psi:calbec :      0.09s CPU      0.09s WALL (     463 calls)
     vloc_psi     :      3.93s CPU      3.96s WALL (     463 calls)
     add_vuspsi   :      0.07s CPU      0.07s WALL (     463 calls)

     General routines
     calbec       :      0.10s CPU      0.11s WALL (     553 calls)
     fft          :      0.07s CPU      0.08s WALL (      29 calls)
     ffts         :      0.01s CPU      0.01s WALL (       8 calls)
     fftw         :      4.23s CPU      4.26s WALL (    3926 calls)

     Parallel routines

     PWSCF        :      5.95s CPU      6.03s WALL


   This run was terminated on:   0:38:39   7Oct2020            

=------------------------------------------------------------------------------=
   JOB DONE.
=------------------------------------------------------------------------------=
