
     Program PWSCF v.6.4.1 starts on  7Oct2020 at  4: 3:59 

     This program is part of the open-source Quantum ESPRESSO suite
     for quantum simulation of materials; please cite
         "P. Giannozzi et al., J. Phys.:Condens. Matter 21 395502 (2009);
         "P. Giannozzi et al., J. Phys.:Condens. Matter 29 465901 (2017);
          URL http://www.quantum-espresso.org", 
     in publications or presentations arising from this work. More details at
     http://www.quantum-espresso.org/quote

     Parallel version (MPI), running on     1 processors

     MPI processes distributed on     1 nodes
     Waiting for input...
     Reading input from standard input
Warning: card &IONS ignored
Warning: card / ignored
Warning: card &CELL ignored
Warning: card / ignored

     Current dimensions of program PWSCF are:
     Max number of different atomic species (ntypx) = 10
     Max number of k-points (npk) =  40000
     Max angular momentum in pseudopotentials (lmaxx) =  3

     Subspace diagonalization in iterative solution of the eigenvalue problem:
     a serial algorithm will be used

     Message from routine setup:
     DEPRECATED: symmetry with ibrav=0, use correct ibrav instead

     G-vector sticks info
     --------------------
     sticks:   dense  smooth     PW     G-vecs:    dense   smooth      PW
     Sum         583     583    187                 9257     9257    1639



     bravais-lattice index     =            0
     lattice parameter (alat)  =       7.2491  a.u.
     unit-cell volume          =     269.3617 (a.u.)^3
     number of atoms/cell      =            2
     number of atomic types    =            1
     number of electrons       =         8.00
     number of Kohn-Sham states=            4
     kinetic-energy cutoff     =      40.0000  Ry
     charge density cutoff     =     160.0000  Ry
     convergence threshold     =      1.0E-07
     mixing beta               =       0.5000
     number of iterations used =            8  plain     mixing
     Exchange-correlation      = SLA PZ NOGX NOGC ( 1  1  0  0 0 0)

     celldm(1)=   7.249092  celldm(2)=   0.000000  celldm(3)=   0.000000
     celldm(4)=   0.000000  celldm(5)=   0.000000  celldm(6)=   0.000000

     crystal axes: (cart. coord. in units of alat)
               a(1) = (   0.000000   0.707107   0.707107 )  
               a(2) = (   0.707107   0.000000   0.707107 )  
               a(3) = (   0.707107   0.707107   0.000000 )  

     reciprocal axes: (cart. coord. in units 2 pi/alat)
               b(1) = ( -0.707107  0.707107  0.707107 )  
               b(2) = (  0.707107 -0.707107  0.707107 )  
               b(3) = (  0.707107  0.707107 -0.707107 )  


     PseudoPot. # 1 for Ge read from file:
     /home/modeler/qe_pseudo/Ge.pz-bhs.UPF
     MD5 check sum: 4f8fee77de72fb640d24dcbf01bda005
     Pseudo is Norm-conserving, Zval =  4.0
     Generated by new atomic code, or converted to UPF format
     Using radial grid of  291 points,  2 beta functions with: 
                l(1) =   0
                l(2) =   1

     atomic species   valence    mass     pseudopotential
        Ge             4.00    72.63000     Ge( 1.00)

     48 Sym. Ops., with inversion, found (24 have fractional translation)



   Cartesian axes

     site n.     atom                  positions (alat units)
         1           Ge  tau(   1) = (   0.0000000   0.0000000   0.0000000  )
         2           Ge  tau(   2) = (   0.3535534   0.3535534   0.3535534  )

     number of k points=    10
                       cart. coord. in units 2pi/alat
        k(    1) = (   0.0000000   0.0000000   0.0000000), wk =   0.0160000
        k(    2) = (   0.1414214   0.1414214  -0.1414214), wk =   0.1280000
        k(    3) = (   0.2828427   0.2828427  -0.2828427), wk =   0.1280000
        k(    4) = (   0.2828427   0.0000000   0.0000000), wk =   0.0960000
        k(    5) = (   0.4242641   0.1414214  -0.1414214), wk =   0.3840000
        k(    6) = (  -0.1414214  -0.4242641   0.4242641), wk =   0.3840000
        k(    7) = (   0.0000000  -0.2828427   0.2828427), wk =   0.1920000
        k(    8) = (   0.5656854   0.0000000   0.0000000), wk =   0.0960000
        k(    9) = (   0.0000000  -0.5656854   0.5656854), wk =   0.1920000
        k(   10) = (  -0.1414214  -0.4242641   0.7071068), wk =   0.3840000

     Dense  grid:     9257 G-vectors     FFT dimensions: (  32,  32,  32)

     Estimated max dynamical RAM per process >       7.69 MB

     Initial potential from superposition of free atoms

     starting charge    6.99990, renormalised to    8.00000
     Starting wfcs are    8 randomized atomic wfcs

     total cpu time spent up to now is        0.1 secs

     Self-consistent Calculation

     iteration #  1     ecut=    40.00 Ry     beta= 0.50
     Davidson diagonalization with overlap
     ethr =  1.00E-02,  avg # of iterations =  1.4

     Threshold (ethr) on eigenvalues was too large:
     Diagonalizing with lowered threshold

     Davidson diagonalization with overlap
     ethr =  2.73E-04,  avg # of iterations =  2.9

     total cpu time spent up to now is        0.3 secs

     total energy              =     -16.00010771 Ry
     Harris-Foulkes estimate   =     -16.00300634 Ry
     estimated scf accuracy    <       0.02452461 Ry

     iteration #  2     ecut=    40.00 Ry     beta= 0.50
     Davidson diagonalization with overlap
     ethr =  3.07E-04,  avg # of iterations =  1.0

     total cpu time spent up to now is        0.3 secs

     total energy              =     -15.99917625 Ry
     Harris-Foulkes estimate   =     -16.00015439 Ry
     estimated scf accuracy    <       0.00589449 Ry

     iteration #  3     ecut=    40.00 Ry     beta= 0.50
     Davidson diagonalization with overlap
     ethr =  7.37E-05,  avg # of iterations =  1.0

     total cpu time spent up to now is        0.4 secs

     total energy              =     -15.99922097 Ry
     Harris-Foulkes estimate   =     -15.99922116 Ry
     estimated scf accuracy    <       0.00000144 Ry

     iteration #  4     ecut=    40.00 Ry     beta= 0.50
     Davidson diagonalization with overlap
     ethr =  1.81E-08,  avg # of iterations =  4.7

     total cpu time spent up to now is        0.5 secs

     total energy              =     -15.99923542 Ry
     Harris-Foulkes estimate   =     -15.99923592 Ry
     estimated scf accuracy    <       0.00000229 Ry

     iteration #  5     ecut=    40.00 Ry     beta= 0.50
     Davidson diagonalization with overlap
     ethr =  1.81E-08,  avg # of iterations =  1.0

     total cpu time spent up to now is        0.6 secs

     total energy              =     -15.99923564 Ry
     Harris-Foulkes estimate   =     -15.99923545 Ry
     estimated scf accuracy    <       0.00000083 Ry

     iteration #  6     ecut=    40.00 Ry     beta= 0.50
     Davidson diagonalization with overlap
     ethr =  1.04E-08,  avg # of iterations =  2.5

     total cpu time spent up to now is        0.7 secs

     total energy              =     -15.99923489 Ry
     Harris-Foulkes estimate   =     -15.99923632 Ry
     estimated scf accuracy    <       0.00000472 Ry

     iteration #  7     ecut=    40.00 Ry     beta= 0.50
     Davidson diagonalization with overlap
     ethr =  1.04E-08,  avg # of iterations =  2.0

     total cpu time spent up to now is        0.8 secs

     End of self-consistent calculation

          k = 0.0000 0.0000 0.0000 (  1139 PWs)   bands (ev):

    -6.7237   6.7644   6.7644   6.7644

          k = 0.1414 0.1414-0.1414 (  1167 PWs)   bands (ev):

    -6.2249   2.9144   6.0201   6.0201

          k = 0.2828 0.2828-0.2828 (  1149 PWs)   bands (ev):

    -4.9048  -0.7046   5.3297   5.3297

          k = 0.2828 0.0000 0.0000 (  1158 PWs)   bands (ev):

    -6.0514   3.1489   4.9500   4.9500

          k = 0.4243 0.1414-0.1414 (  1156 PWs)   bands (ev):

    -4.9349   0.2029   3.5500   4.3374

          k =-0.1414-0.4243 0.4243 (  1151 PWs)   bands (ev):

    -4.0814  -1.2438   2.6403   4.6519

          k = 0.0000-0.2828 0.2828 (  1151 PWs)   bands (ev):

    -5.4153   1.1178   3.1997   5.6774

          k = 0.5657 0.0000 0.0000 (  1154 PWs)   bands (ev):

    -4.0511  -0.8543   3.5266   3.5266

          k = 0.0000-0.5657 0.5657 (  1144 PWs)   bands (ev):

    -2.8578  -2.1792   2.0570   3.6590

          k =-0.1414-0.4243 0.7071 (  1151 PWs)   bands (ev):

    -3.6284  -1.2677   2.1329   3.2361

     highest occupied level (ev):     6.7644

!    total energy              =     -15.99923528 Ry
     Harris-Foulkes estimate   =     -15.99923531 Ry
     estimated scf accuracy    <       0.00000008 Ry

     The total energy is the sum of the following terms:

     one-electron contribution =       4.51775462 Ry
     hartree contribution      =       1.08013390 Ry
     xc contribution           =      -4.78269721 Ry
     ewald contribution        =     -16.81442659 Ry

     convergence has been achieved in   7 iterations

     Forces acting on atoms (cartesian axes, Ry/au):

     atom    1 type  1   force =     0.00000000    0.00000000    0.00000000
     atom    2 type  1   force =     0.00000000    0.00000000    0.00000000

     Total force =     0.000000     Total SCF correction =     0.000000


     Computing stress (Cartesian axis) and pressure

          total   stress  (Ry/bohr**3)                   (kbar)     P=   92.18
   0.00062659   0.00000000   0.00000000         92.18      0.00      0.00
   0.00000000   0.00062659   0.00000000          0.00     92.18      0.00
   0.00000000   0.00000000   0.00062659          0.00      0.00     92.18


     init_run     :      0.08s CPU      0.08s WALL (       1 calls)
     electrons    :      0.65s CPU      0.67s WALL (       1 calls)
     forces       :      0.01s CPU      0.01s WALL (       1 calls)
     stress       :      0.05s CPU      0.05s WALL (       1 calls)

     Called by init_run:
     wfcinit      :      0.05s CPU      0.05s WALL (       1 calls)
     potinit      :      0.00s CPU      0.00s WALL (       1 calls)
     hinit0       :      0.02s CPU      0.02s WALL (       1 calls)

     Called by electrons:
     c_bands      :      0.52s CPU      0.53s WALL (       8 calls)
     sum_band     :      0.11s CPU      0.11s WALL (       8 calls)
     v_of_rho     :      0.02s CPU      0.02s WALL (       8 calls)
     mix_rho      :      0.01s CPU      0.01s WALL (       8 calls)

     Called by c_bands:
     init_us_2    :      0.04s CPU      0.04s WALL (     190 calls)
     cegterg      :      0.49s CPU      0.50s WALL (      80 calls)

     Called by sum_band:

     Called by *egterg:
     h_psi        :      0.44s CPU      0.44s WALL (     255 calls)
     g_psi        :      0.01s CPU      0.01s WALL (     165 calls)
     cdiaghg      :      0.01s CPU      0.01s WALL (     235 calls)

     Called by h_psi:
     h_psi:pot    :      0.43s CPU      0.44s WALL (     255 calls)
     h_psi:calbec :      0.02s CPU      0.02s WALL (     255 calls)
     vloc_psi     :      0.39s CPU      0.40s WALL (     255 calls)
     add_vuspsi   :      0.02s CPU      0.02s WALL (     255 calls)

     General routines
     calbec       :      0.02s CPU      0.02s WALL (     305 calls)
     fft          :      0.01s CPU      0.01s WALL (      29 calls)
     ffts         :      0.00s CPU      0.00s WALL (       8 calls)
     fftw         :      0.34s CPU      0.35s WALL (    2254 calls)

     Parallel routines

     PWSCF        :      0.82s CPU      0.84s WALL


   This run was terminated on:   4: 4: 0   7Oct2020            

=------------------------------------------------------------------------------=
   JOB DONE.
=------------------------------------------------------------------------------=
