
     Program PWSCF v.6.4.1 starts on  7Oct2020 at  1:42:32 

     This program is part of the open-source Quantum ESPRESSO suite
     for quantum simulation of materials; please cite
         "P. Giannozzi et al., J. Phys.:Condens. Matter 21 395502 (2009);
         "P. Giannozzi et al., J. Phys.:Condens. Matter 29 465901 (2017);
          URL http://www.quantum-espresso.org", 
     in publications or presentations arising from this work. More details at
     http://www.quantum-espresso.org/quote

     Parallel version (MPI), running on     1 processors

     MPI processes distributed on     1 nodes
     Waiting for input...
     Reading input from standard input
Warning: card &IONS ignored
Warning: card / ignored
Warning: card &CELL ignored
Warning: card / ignored

     Current dimensions of program PWSCF are:
     Max number of different atomic species (ntypx) = 10
     Max number of k-points (npk) =  40000
     Max angular momentum in pseudopotentials (lmaxx) =  3

     Subspace diagonalization in iterative solution of the eigenvalue problem:
     a serial algorithm will be used

     Message from routine setup:
     DEPRECATED: symmetry with ibrav=0, use correct ibrav instead

     G-vector sticks info
     --------------------
     sticks:   dense  smooth     PW     G-vecs:    dense   smooth      PW
     Sum         121     121     43                  893      893     181



     bravais-lattice index     =            0
     lattice parameter (alat)  =       6.6812  a.u.
     unit-cell volume          =     210.8855 (a.u.)^3
     number of atoms/cell      =            2
     number of atomic types    =            1
     number of electrons       =         8.00
     number of Kohn-Sham states=            4
     kinetic-energy cutoff     =      10.0000  Ry
     charge density cutoff     =      40.0000  Ry
     convergence threshold     =      1.0E-07
     mixing beta               =       0.5000
     number of iterations used =            8  plain     mixing
     Exchange-correlation      = SLA PZ NOGX NOGC ( 1  1  0  0 0 0)

     celldm(1)=   6.681191  celldm(2)=   0.000000  celldm(3)=   0.000000
     celldm(4)=   0.000000  celldm(5)=   0.000000  celldm(6)=   0.000000

     crystal axes: (cart. coord. in units of alat)
               a(1) = (   0.000000   0.707107   0.707107 )  
               a(2) = (   0.707107   0.000000   0.707107 )  
               a(3) = (   0.707107   0.707107   0.000000 )  

     reciprocal axes: (cart. coord. in units 2 pi/alat)
               b(1) = ( -0.707107  0.707107  0.707107 )  
               b(2) = (  0.707107 -0.707107  0.707107 )  
               b(3) = (  0.707107  0.707107 -0.707107 )  


     PseudoPot. # 1 for Ge read from file:
     /home/modeler/qe_pseudo/Ge.pz-bhs.UPF
     MD5 check sum: 4f8fee77de72fb640d24dcbf01bda005
     Pseudo is Norm-conserving, Zval =  4.0
     Generated by new atomic code, or converted to UPF format
     Using radial grid of  291 points,  2 beta functions with: 
                l(1) =   0
                l(2) =   1

     atomic species   valence    mass     pseudopotential
        Ge             4.00    72.63000     Ge( 1.00)

      4 Sym. Ops. (no inversion) found



   Cartesian axes

     site n.     atom                  positions (alat units)
         1           Ge  tau(   1) = (   0.0000000   0.0000000   0.0707107  )
         2           Ge  tau(   2) = (   0.3535534   0.3535534   0.3535534  )

     number of k points=     5
                       cart. coord. in units 2pi/alat
        k(    1) = (   0.0000000   0.0000000   0.0000000), wk =   0.2500000
        k(    2) = (  -0.3535534  -0.3535534   0.3535534), wk =   0.5000000
        k(    3) = (  -0.7071068   0.0000000   0.0000000), wk =   0.5000000
        k(    4) = (  -0.3535534   0.3535534   0.3535534), wk =   0.5000000
        k(    5) = (   0.0000000   0.0000000  -0.7071068), wk =   0.2500000

     Dense  grid:      893 G-vectors     FFT dimensions: (  15,  15,  15)

     Estimated max dynamical RAM per process >       0.77 MB

     Initial potential from superposition of free atoms

     starting charge    6.99990, renormalised to    8.00000
     Starting wfcs are    8 randomized atomic wfcs

     total cpu time spent up to now is        0.0 secs

     Self-consistent Calculation

     iteration #  1     ecut=    10.00 Ry     beta= 0.50
     Davidson diagonalization with overlap
     ethr =  1.00E-02,  avg # of iterations =  1.6

     Threshold (ethr) on eigenvalues was too large:
     Diagonalizing with lowered threshold

     Davidson diagonalization with overlap
     ethr =  6.04E-04,  avg # of iterations =  2.2

     total cpu time spent up to now is        0.0 secs

     total energy              =     -15.51187537 Ry
     Harris-Foulkes estimate   =     -15.52269162 Ry
     estimated scf accuracy    <       0.05577818 Ry

     iteration #  2     ecut=    10.00 Ry     beta= 0.50
     Davidson diagonalization with overlap
     ethr =  6.97E-04,  avg # of iterations =  1.0

     total cpu time spent up to now is        0.1 secs

     total energy              =     -15.51039080 Ry
     Harris-Foulkes estimate   =     -15.51274191 Ry
     estimated scf accuracy    <       0.01147320 Ry

     iteration #  3     ecut=    10.00 Ry     beta= 0.50
     Davidson diagonalization with overlap
     ethr =  1.43E-04,  avg # of iterations =  1.0

     total cpu time spent up to now is        0.1 secs

     total energy              =     -15.51096340 Ry
     Harris-Foulkes estimate   =     -15.51099606 Ry
     estimated scf accuracy    <       0.00010110 Ry

     iteration #  4     ecut=    10.00 Ry     beta= 0.50
     Davidson diagonalization with overlap
     c_bands:  1 eigenvalues not converged
     ethr =  1.26E-06,  avg # of iterations =  6.4

     total cpu time spent up to now is        0.1 secs

     total energy              =     -15.51338924 Ry
     Harris-Foulkes estimate   =     -15.51338579 Ry
     estimated scf accuracy    <       0.00253253 Ry

     iteration #  5     ecut=    10.00 Ry     beta= 0.50
     Davidson diagonalization with overlap
     ethr =  1.26E-06,  avg # of iterations =  1.0

     total cpu time spent up to now is        0.1 secs

     total energy              =     -15.51332976 Ry
     Harris-Foulkes estimate   =     -15.51338962 Ry
     estimated scf accuracy    <       0.00254371 Ry

     iteration #  6     ecut=    10.00 Ry     beta= 0.50
     Davidson diagonalization with overlap
     ethr =  1.26E-06,  avg # of iterations =  1.0

     total cpu time spent up to now is        0.1 secs

     total energy              =     -15.51266414 Ry
     Harris-Foulkes estimate   =     -15.51333009 Ry
     estimated scf accuracy    <       0.00239902 Ry

     iteration #  7     ecut=    10.00 Ry     beta= 0.50
     Davidson diagonalization with overlap
     ethr =  1.26E-06,  avg # of iterations =  2.2

     total cpu time spent up to now is        0.1 secs

     total energy              =     -15.51265915 Ry
     Harris-Foulkes estimate   =     -15.51271521 Ry
     estimated scf accuracy    <       0.00084522 Ry

     iteration #  8     ecut=    10.00 Ry     beta= 0.50
     Davidson diagonalization with overlap
     ethr =  1.26E-06,  avg # of iterations =  1.0

     total cpu time spent up to now is        0.1 secs

     total energy              =     -15.51234073 Ry
     Harris-Foulkes estimate   =     -15.51266026 Ry
     estimated scf accuracy    <       0.00070887 Ry

     iteration #  9     ecut=    10.00 Ry     beta= 0.50
     Davidson diagonalization with overlap
     ethr =  1.26E-06,  avg # of iterations =  4.0

     total cpu time spent up to now is        0.1 secs

     total energy              =     -15.51246856 Ry
     Harris-Foulkes estimate   =     -15.51245052 Ry
     estimated scf accuracy    <       0.00029976 Ry

     iteration # 10     ecut=    10.00 Ry     beta= 0.50
     Davidson diagonalization with overlap
     ethr =  1.26E-06,  avg # of iterations =  1.0

     total cpu time spent up to now is        0.1 secs

     total energy              =     -15.51254904 Ry
     Harris-Foulkes estimate   =     -15.51247061 Ry
     estimated scf accuracy    <       0.00034861 Ry

     iteration # 11     ecut=    10.00 Ry     beta= 0.50
     Davidson diagonalization with overlap
     ethr =  1.26E-06,  avg # of iterations =  3.8

     total cpu time spent up to now is        0.1 secs

     total energy              =     -15.51319222 Ry
     Harris-Foulkes estimate   =     -15.51272890 Ry
     estimated scf accuracy    <       0.00383656 Ry

     iteration # 12     ecut=    10.00 Ry     beta= 0.50
     Davidson diagonalization with overlap
     ethr =  1.26E-06,  avg # of iterations =  4.8

     total cpu time spent up to now is        0.1 secs

     total energy              =     -15.51295785 Ry
     Harris-Foulkes estimate   =     -15.51354604 Ry
     estimated scf accuracy    <       0.00953905 Ry

     iteration # 13     ecut=    10.00 Ry     beta= 0.50
     Davidson diagonalization with overlap
     ethr =  1.26E-06,  avg # of iterations =  2.0

     total cpu time spent up to now is        0.1 secs

     total energy              =     -15.51127482 Ry
     Harris-Foulkes estimate   =     -15.51296585 Ry
     estimated scf accuracy    <       0.00810768 Ry

     iteration # 14     ecut=    10.00 Ry     beta= 0.50
     Davidson diagonalization with overlap
     ethr =  1.26E-06,  avg # of iterations =  4.4

     total cpu time spent up to now is        0.1 secs

     total energy              =     -15.51246631 Ry
     Harris-Foulkes estimate   =     -15.51248485 Ry
     estimated scf accuracy    <       0.00034474 Ry

     iteration # 15     ecut=    10.00 Ry     beta= 0.50
     Davidson diagonalization with overlap
     ethr =  1.26E-06,  avg # of iterations =  1.0

     total cpu time spent up to now is        0.1 secs

     total energy              =     -15.51242830 Ry
     Harris-Foulkes estimate   =     -15.51246724 Ry
     estimated scf accuracy    <       0.00030042 Ry

     iteration # 16     ecut=    10.00 Ry     beta= 0.50
     Davidson diagonalization with overlap
     ethr =  1.26E-06,  avg # of iterations =  1.0

     total cpu time spent up to now is        0.1 secs

     total energy              =     -15.51241005 Ry
     Harris-Foulkes estimate   =     -15.51243051 Ry
     estimated scf accuracy    <       0.00020328 Ry

     iteration # 17     ecut=    10.00 Ry     beta= 0.50
     Davidson diagonalization with overlap
     ethr =  1.26E-06,  avg # of iterations =  1.0

     total cpu time spent up to now is        0.1 secs

     total energy              =     -15.51238892 Ry
     Harris-Foulkes estimate   =     -15.51241123 Ry
     estimated scf accuracy    <       0.00015276 Ry

     iteration # 18     ecut=    10.00 Ry     beta= 0.50
     Davidson diagonalization with overlap
     ethr =  1.26E-06,  avg # of iterations =  1.0

     total cpu time spent up to now is        0.1 secs

     total energy              =     -15.51239258 Ry
     Harris-Foulkes estimate   =     -15.51239068 Ry
     estimated scf accuracy    <       0.00009714 Ry

     iteration # 19     ecut=    10.00 Ry     beta= 0.50
     Davidson diagonalization with overlap
     ethr =  1.21E-06,  avg # of iterations =  1.0

     total cpu time spent up to now is        0.1 secs

     total energy              =     -15.51239535 Ry
     Harris-Foulkes estimate   =     -15.51239318 Ry
     estimated scf accuracy    <       0.00009936 Ry

     iteration # 20     ecut=    10.00 Ry     beta= 0.50
     Davidson diagonalization with overlap
     ethr =  1.21E-06,  avg # of iterations =  1.0

     total cpu time spent up to now is        0.1 secs

     total energy              =     -15.51235764 Ry
     Harris-Foulkes estimate   =     -15.51239564 Ry
     estimated scf accuracy    <       0.00010125 Ry

     iteration # 21     ecut=    10.00 Ry     beta= 0.50
     Davidson diagonalization with overlap
     ethr =  1.21E-06,  avg # of iterations =  3.2

     total cpu time spent up to now is        0.2 secs

     total energy              =     -15.51241487 Ry
     Harris-Foulkes estimate   =     -15.51256223 Ry
     estimated scf accuracy    <       0.00144833 Ry

     iteration # 22     ecut=    10.00 Ry     beta= 0.50
     Davidson diagonalization with overlap
     ethr =  1.21E-06,  avg # of iterations =  1.2

     total cpu time spent up to now is        0.2 secs

     total energy              =     -15.51249923 Ry
     Harris-Foulkes estimate   =     -15.51241857 Ry
     estimated scf accuracy    <       0.00110341 Ry

     iteration # 23     ecut=    10.00 Ry     beta= 0.50
     Davidson diagonalization with overlap
     ethr =  1.21E-06,  avg # of iterations =  1.0

     total cpu time spent up to now is        0.2 secs

     total energy              =     -15.51244858 Ry
     Harris-Foulkes estimate   =     -15.51250125 Ry
     estimated scf accuracy    <       0.00129455 Ry

     iteration # 24     ecut=    10.00 Ry     beta= 0.50
     Davidson diagonalization with overlap
     ethr =  1.21E-06,  avg # of iterations =  1.0

     total cpu time spent up to now is        0.2 secs

     total energy              =     -15.51244989 Ry
     Harris-Foulkes estimate   =     -15.51244917 Ry
     estimated scf accuracy    <       0.00117286 Ry

     iteration # 25     ecut=    10.00 Ry     beta= 0.50
     Davidson diagonalization with overlap
     ethr =  1.21E-06,  avg # of iterations =  1.0

     total cpu time spent up to now is        0.2 secs

     total energy              =     -15.51243886 Ry
     Harris-Foulkes estimate   =     -15.51245004 Ry
     estimated scf accuracy    <       0.00116952 Ry

     iteration # 26     ecut=    10.00 Ry     beta= 0.50
     Davidson diagonalization with overlap
     ethr =  1.21E-06,  avg # of iterations =  1.0

     total cpu time spent up to now is        0.2 secs

     total energy              =     -15.51244642 Ry
     Harris-Foulkes estimate   =     -15.51243898 Ry
     estimated scf accuracy    <       0.00113673 Ry

     iteration # 27     ecut=    10.00 Ry     beta= 0.50
     Davidson diagonalization with overlap
     ethr =  1.21E-06,  avg # of iterations =  1.0

     total cpu time spent up to now is        0.2 secs

     total energy              =     -15.51243767 Ry
     Harris-Foulkes estimate   =     -15.51244649 Ry
     estimated scf accuracy    <       0.00115179 Ry

     iteration # 28     ecut=    10.00 Ry     beta= 0.50
     Davidson diagonalization with overlap
     ethr =  1.21E-06,  avg # of iterations =  1.0

     total cpu time spent up to now is        0.2 secs

     total energy              =     -15.51244290 Ry
     Harris-Foulkes estimate   =     -15.51243775 Ry
     estimated scf accuracy    <       0.00112550 Ry

     iteration # 29     ecut=    10.00 Ry     beta= 0.50
     Davidson diagonalization with overlap
     ethr =  1.21E-06,  avg # of iterations =  1.0

     total cpu time spent up to now is        0.2 secs

     total energy              =     -15.51190454 Ry
     Harris-Foulkes estimate   =     -15.51244294 Ry
     estimated scf accuracy    <       0.00113559 Ry

     iteration # 30     ecut=    10.00 Ry     beta= 0.50
     Davidson diagonalization with overlap
     ethr =  1.21E-06,  avg # of iterations =  4.4

     total cpu time spent up to now is        0.2 secs

     total energy              =     -15.51239177 Ry
     Harris-Foulkes estimate   =     -15.51314250 Ry
     estimated scf accuracy    <       0.00374986 Ry

     iteration # 31     ecut=    10.00 Ry     beta= 0.50
     Davidson diagonalization with overlap
     ethr =  1.21E-06,  avg # of iterations =  5.8

     total cpu time spent up to now is        0.2 secs

     total energy              =     -15.51242537 Ry
     Harris-Foulkes estimate   =     -15.51251826 Ry
     estimated scf accuracy    <       0.00062029 Ry

     iteration # 32     ecut=    10.00 Ry     beta= 0.50
     Davidson diagonalization with overlap
     ethr =  1.21E-06,  avg # of iterations =  1.2

     total cpu time spent up to now is        0.2 secs

     total energy              =     -15.51240041 Ry
     Harris-Foulkes estimate   =     -15.51243002 Ry
     estimated scf accuracy    <       0.00039059 Ry

     iteration # 33     ecut=    10.00 Ry     beta= 0.50
     Davidson diagonalization with overlap
     ethr =  1.21E-06,  avg # of iterations =  2.2

     total cpu time spent up to now is        0.2 secs

     total energy              =     -15.51242045 Ry
     Harris-Foulkes estimate   =     -15.51242249 Ry
     estimated scf accuracy    <       0.00004253 Ry

     iteration # 34     ecut=    10.00 Ry     beta= 0.50
     Davidson diagonalization with overlap
     ethr =  5.32E-07,  avg # of iterations =  1.0

     total cpu time spent up to now is        0.2 secs

     total energy              =     -15.51241969 Ry
     Harris-Foulkes estimate   =     -15.51242094 Ry
     estimated scf accuracy    <       0.00003661 Ry

     iteration # 35     ecut=    10.00 Ry     beta= 0.50
     Davidson diagonalization with overlap
     ethr =  4.58E-07,  avg # of iterations =  1.0

     total cpu time spent up to now is        0.2 secs

     total energy              =     -15.51240868 Ry
     Harris-Foulkes estimate   =     -15.51241993 Ry
     estimated scf accuracy    <       0.00003257 Ry

     iteration # 36     ecut=    10.00 Ry     beta= 0.50
     Davidson diagonalization with overlap
     ethr =  4.07E-07,  avg # of iterations =  2.8

     total cpu time spent up to now is        0.2 secs

     total energy              =     -15.51241452 Ry
     Harris-Foulkes estimate   =     -15.51242129 Ry
     estimated scf accuracy    <       0.00013533 Ry

     iteration # 37     ecut=    10.00 Ry     beta= 0.50
     Davidson diagonalization with overlap
     ethr =  4.07E-07,  avg # of iterations =  1.0

     total cpu time spent up to now is        0.2 secs

     total energy              =     -15.51240723 Ry
     Harris-Foulkes estimate   =     -15.51241496 Ry
     estimated scf accuracy    <       0.00012014 Ry

     iteration # 38     ecut=    10.00 Ry     beta= 0.50
     Davidson diagonalization with overlap
     ethr =  4.07E-07,  avg # of iterations =  2.2

     total cpu time spent up to now is        0.2 secs

     total energy              =     -15.51241600 Ry
     Harris-Foulkes estimate   =     -15.51241755 Ry
     estimated scf accuracy    <       0.00001921 Ry

     iteration # 39     ecut=    10.00 Ry     beta= 0.50
     Davidson diagonalization with overlap
     ethr =  2.40E-07,  avg # of iterations =  1.0

     total cpu time spent up to now is        0.2 secs

     total energy              =     -15.51241354 Ry
     Harris-Foulkes estimate   =     -15.51241605 Ry
     estimated scf accuracy    <       0.00001560 Ry

     iteration # 40     ecut=    10.00 Ry     beta= 0.50
     Davidson diagonalization with overlap
     ethr =  1.95E-07,  avg # of iterations =  1.0

     total cpu time spent up to now is        0.3 secs

     total energy              =     -15.51241298 Ry
     Harris-Foulkes estimate   =     -15.51241367 Ry
     estimated scf accuracy    <       0.00000949 Ry

     iteration # 41     ecut=    10.00 Ry     beta= 0.50
     Davidson diagonalization with overlap
     ethr =  1.19E-07,  avg # of iterations =  1.0

     total cpu time spent up to now is        0.3 secs

     total energy              =     -15.51240914 Ry
     Harris-Foulkes estimate   =     -15.51241300 Ry
     estimated scf accuracy    <       0.00000787 Ry

     iteration # 42     ecut=    10.00 Ry     beta= 0.50
     Davidson diagonalization with overlap
     ethr =  9.84E-08,  avg # of iterations =  5.0

     total cpu time spent up to now is        0.3 secs

     total energy              =     -15.51242257 Ry
     Harris-Foulkes estimate   =     -15.51242724 Ry
     estimated scf accuracy    <       0.00026674 Ry

     iteration # 43     ecut=    10.00 Ry     beta= 0.50
     Davidson diagonalization with overlap
     ethr =  9.84E-08,  avg # of iterations =  1.0

     total cpu time spent up to now is        0.3 secs

     total energy              =     -15.51242691 Ry
     Harris-Foulkes estimate   =     -15.51242263 Ry
     estimated scf accuracy    <       0.00025546 Ry

     iteration # 44     ecut=    10.00 Ry     beta= 0.50
     Davidson diagonalization with overlap
     ethr =  9.84E-08,  avg # of iterations =  1.0

     total cpu time spent up to now is        0.3 secs

     total energy              =     -15.51242750 Ry
     Harris-Foulkes estimate   =     -15.51242692 Ry
     estimated scf accuracy    <       0.00026580 Ry

     iteration # 45     ecut=    10.00 Ry     beta= 0.50
     Davidson diagonalization with overlap
     ethr =  9.84E-08,  avg # of iterations =  1.0

     total cpu time spent up to now is        0.3 secs

     total energy              =     -15.51243274 Ry
     Harris-Foulkes estimate   =     -15.51242751 Ry
     estimated scf accuracy    <       0.00026823 Ry

     iteration # 46     ecut=    10.00 Ry     beta= 0.50
     Davidson diagonalization with overlap
     ethr =  9.84E-08,  avg # of iterations =  1.0

     total cpu time spent up to now is        0.3 secs

     total energy              =     -15.51242917 Ry
     Harris-Foulkes estimate   =     -15.51243279 Ry
     estimated scf accuracy    <       0.00028200 Ry

     iteration # 47     ecut=    10.00 Ry     beta= 0.50
     Davidson diagonalization with overlap
     ethr =  9.84E-08,  avg # of iterations =  1.0

     total cpu time spent up to now is        0.3 secs

     total energy              =     -15.51243187 Ry
     Harris-Foulkes estimate   =     -15.51242919 Ry
     estimated scf accuracy    <       0.00027426 Ry

     iteration # 48     ecut=    10.00 Ry     beta= 0.50
     Davidson diagonalization with overlap
     ethr =  9.84E-08,  avg # of iterations =  1.0

     total cpu time spent up to now is        0.3 secs

     total energy              =     -15.51243561 Ry
     Harris-Foulkes estimate   =     -15.51243189 Ry
     estimated scf accuracy    <       0.00028180 Ry

     iteration # 49     ecut=    10.00 Ry     beta= 0.50
     Davidson diagonalization with overlap
     ethr =  9.84E-08,  avg # of iterations =  1.0

     total cpu time spent up to now is        0.3 secs

     total energy              =     -15.51245814 Ry
     Harris-Foulkes estimate   =     -15.51243564 Ry
     estimated scf accuracy    <       0.00029201 Ry

     iteration # 50     ecut=    10.00 Ry     beta= 0.50
     Davidson diagonalization with overlap
     ethr =  9.84E-08,  avg # of iterations =  3.0

     total cpu time spent up to now is        0.3 secs

     total energy              =     -15.51257230 Ry
     Harris-Foulkes estimate   =     -15.51247538 Ry
     estimated scf accuracy    <       0.00118310 Ry

     iteration # 51     ecut=    10.00 Ry     beta= 0.50
     Davidson diagonalization with overlap
     ethr =  9.84E-08,  avg # of iterations =  5.0

     total cpu time spent up to now is        0.3 secs

     total energy              =     -15.51226890 Ry
     Harris-Foulkes estimate   =     -15.51267768 Ry
     estimated scf accuracy    <       0.00532673 Ry

     iteration # 52     ecut=    10.00 Ry     beta= 0.50
     Davidson diagonalization with overlap
     ethr =  9.84E-08,  avg # of iterations =  4.4

     total cpu time spent up to now is        0.3 secs

     total energy              =     -15.51238652 Ry
     Harris-Foulkes estimate   =     -15.51241712 Ry
     estimated scf accuracy    <       0.00027911 Ry

     iteration # 53     ecut=    10.00 Ry     beta= 0.50
     Davidson diagonalization with overlap
     ethr =  9.84E-08,  avg # of iterations =  4.8

     total cpu time spent up to now is        0.3 secs

     total energy              =     -15.51239937 Ry
     Harris-Foulkes estimate   =     -15.51242012 Ry
     estimated scf accuracy    <       0.00018390 Ry

     iteration # 54     ecut=    10.00 Ry     beta= 0.50
     Davidson diagonalization with overlap
     ethr =  9.84E-08,  avg # of iterations =  4.6

     total cpu time spent up to now is        0.3 secs

     total energy              =     -15.51241128 Ry
     Harris-Foulkes estimate   =     -15.51241076 Ry
     estimated scf accuracy    <       0.00000506 Ry

     iteration # 55     ecut=    10.00 Ry     beta= 0.50
     Davidson diagonalization with overlap
     ethr =  6.33E-08,  avg # of iterations =  1.0

     total cpu time spent up to now is        0.3 secs

     total energy              =     -15.51241123 Ry
     Harris-Foulkes estimate   =     -15.51241141 Ry
     estimated scf accuracy    <       0.00000667 Ry

     iteration # 56     ecut=    10.00 Ry     beta= 0.50
     Davidson diagonalization with overlap
     ethr =  6.33E-08,  avg # of iterations =  1.0

     total cpu time spent up to now is        0.3 secs

     total energy              =     -15.51241117 Ry
     Harris-Foulkes estimate   =     -15.51241126 Ry
     estimated scf accuracy    <       0.00000641 Ry

     iteration # 57     ecut=    10.00 Ry     beta= 0.50
     Davidson diagonalization with overlap
     ethr =  6.33E-08,  avg # of iterations =  1.0

     total cpu time spent up to now is        0.3 secs

     total energy              =     -15.51241087 Ry
     Harris-Foulkes estimate   =     -15.51241118 Ry
     estimated scf accuracy    <       0.00000630 Ry

     iteration # 58     ecut=    10.00 Ry     beta= 0.50
     Davidson diagonalization with overlap
     ethr =  6.33E-08,  avg # of iterations =  1.0

     total cpu time spent up to now is        0.3 secs

     total energy              =     -15.51241064 Ry
     Harris-Foulkes estimate   =     -15.51241088 Ry
     estimated scf accuracy    <       0.00000559 Ry

     iteration # 59     ecut=    10.00 Ry     beta= 0.50
     Davidson diagonalization with overlap
     ethr =  6.33E-08,  avg # of iterations =  1.0

     total cpu time spent up to now is        0.3 secs

     total energy              =     -15.51241048 Ry
     Harris-Foulkes estimate   =     -15.51241064 Ry
     estimated scf accuracy    <       0.00000496 Ry

     iteration # 60     ecut=    10.00 Ry     beta= 0.50
     Davidson diagonalization with overlap
     ethr =  6.21E-08,  avg # of iterations =  1.0

     total cpu time spent up to now is        0.4 secs

     total energy              =     -15.51241053 Ry
     Harris-Foulkes estimate   =     -15.51241049 Ry
     estimated scf accuracy    <       0.00000454 Ry

     iteration # 61     ecut=    10.00 Ry     beta= 0.50
     Davidson diagonalization with overlap
     ethr =  5.68E-08,  avg # of iterations =  1.0

     total cpu time spent up to now is        0.4 secs

     total energy              =     -15.51240978 Ry
     Harris-Foulkes estimate   =     -15.51241054 Ry
     estimated scf accuracy    <       0.00000463 Ry

     iteration # 62     ecut=    10.00 Ry     beta= 0.50
     Davidson diagonalization with overlap
     ethr =  5.68E-08,  avg # of iterations =  1.0

     total cpu time spent up to now is        0.4 secs

     total energy              =     -15.51240839 Ry
     Harris-Foulkes estimate   =     -15.51240983 Ry
     estimated scf accuracy    <       0.00000271 Ry

     iteration # 63     ecut=    10.00 Ry     beta= 0.50
     Davidson diagonalization with overlap
     ethr =  3.38E-08,  avg # of iterations =  4.4

     total cpu time spent up to now is        0.4 secs

     total energy              =     -15.51240261 Ry
     Harris-Foulkes estimate   =     -15.51242345 Ry
     estimated scf accuracy    <       0.00025120 Ry

     iteration # 64     ecut=    10.00 Ry     beta= 0.50
     Davidson diagonalization with overlap
     ethr =  3.38E-08,  avg # of iterations =  3.6

     total cpu time spent up to now is        0.4 secs

     total energy              =     -15.51241056 Ry
     Harris-Foulkes estimate   =     -15.51241070 Ry
     estimated scf accuracy    <       0.00000654 Ry

     iteration # 65     ecut=    10.00 Ry     beta= 0.50
     Davidson diagonalization with overlap
     ethr =  3.38E-08,  avg # of iterations =  1.0

     total cpu time spent up to now is        0.4 secs

     total energy              =     -15.51241095 Ry
     Harris-Foulkes estimate   =     -15.51241057 Ry
     estimated scf accuracy    <       0.00000613 Ry

     iteration # 66     ecut=    10.00 Ry     beta= 0.50
     Davidson diagonalization with overlap
     ethr =  3.38E-08,  avg # of iterations =  1.0

     total cpu time spent up to now is        0.4 secs

     total energy              =     -15.51241105 Ry
     Harris-Foulkes estimate   =     -15.51241095 Ry
     estimated scf accuracy    <       0.00000700 Ry

     iteration # 67     ecut=    10.00 Ry     beta= 0.50
     Davidson diagonalization with overlap
     ethr =  3.38E-08,  avg # of iterations =  1.0

     total cpu time spent up to now is        0.4 secs

     total energy              =     -15.51240990 Ry
     Harris-Foulkes estimate   =     -15.51241105 Ry
     estimated scf accuracy    <       0.00000730 Ry

     iteration # 68     ecut=    10.00 Ry     beta= 0.50
     Davidson diagonalization with overlap
     ethr =  3.38E-08,  avg # of iterations =  1.0

     total cpu time spent up to now is        0.4 secs

     total energy              =     -15.51240999 Ry
     Harris-Foulkes estimate   =     -15.51240995 Ry
     estimated scf accuracy    <       0.00000449 Ry

     iteration # 69     ecut=    10.00 Ry     beta= 0.50
     Davidson diagonalization with overlap
     ethr =  3.38E-08,  avg # of iterations =  1.0

     total cpu time spent up to now is        0.4 secs

     total energy              =     -15.51240981 Ry
     Harris-Foulkes estimate   =     -15.51241000 Ry
     estimated scf accuracy    <       0.00000456 Ry

     iteration # 70     ecut=    10.00 Ry     beta= 0.50
     Davidson diagonalization with overlap
     ethr =  3.38E-08,  avg # of iterations =  1.0

     total cpu time spent up to now is        0.4 secs

     total energy              =     -15.51240959 Ry
     Harris-Foulkes estimate   =     -15.51240982 Ry
     estimated scf accuracy    <       0.00000395 Ry

     iteration # 71     ecut=    10.00 Ry     beta= 0.50
     Davidson diagonalization with overlap
     ethr =  3.38E-08,  avg # of iterations =  1.0

     total cpu time spent up to now is        0.4 secs

     total energy              =     -15.51240901 Ry
     Harris-Foulkes estimate   =     -15.51240960 Ry
     estimated scf accuracy    <       0.00000332 Ry

     iteration # 72     ecut=    10.00 Ry     beta= 0.50
     Davidson diagonalization with overlap
     ethr =  3.38E-08,  avg # of iterations =  2.6

     total cpu time spent up to now is        0.4 secs

     total energy              =     -15.51240858 Ry
     Harris-Foulkes estimate   =     -15.51241253 Ry
     estimated scf accuracy    <       0.00004506 Ry

     iteration # 73     ecut=    10.00 Ry     beta= 0.50
     Davidson diagonalization with overlap
     ethr =  3.38E-08,  avg # of iterations =  2.6

     total cpu time spent up to now is        0.4 secs

     total energy              =     -15.51241041 Ry
     Harris-Foulkes estimate   =     -15.51241038 Ry
     estimated scf accuracy    <       0.00000021 Ry

     iteration # 74     ecut=    10.00 Ry     beta= 0.50
     Davidson diagonalization with overlap
     ethr =  2.65E-09,  avg # of iterations =  2.0

     total cpu time spent up to now is        0.4 secs

     total energy              =     -15.51241042 Ry
     Harris-Foulkes estimate   =     -15.51241042 Ry
     estimated scf accuracy    <       0.00000031 Ry

     iteration # 75     ecut=    10.00 Ry     beta= 0.50
     Davidson diagonalization with overlap
     ethr =  2.65E-09,  avg # of iterations =  1.0

     total cpu time spent up to now is        0.4 secs

     total energy              =     -15.51241042 Ry
     Harris-Foulkes estimate   =     -15.51241043 Ry
     estimated scf accuracy    <       0.00000029 Ry

     iteration # 76     ecut=    10.00 Ry     beta= 0.50
     Davidson diagonalization with overlap
     ethr =  2.65E-09,  avg # of iterations =  1.0

     total cpu time spent up to now is        0.4 secs

     total energy              =     -15.51241043 Ry
     Harris-Foulkes estimate   =     -15.51241042 Ry
     estimated scf accuracy    <       0.00000028 Ry

     iteration # 77     ecut=    10.00 Ry     beta= 0.50
     Davidson diagonalization with overlap
     ethr =  2.65E-09,  avg # of iterations =  1.0

     total cpu time spent up to now is        0.4 secs

     total energy              =     -15.51241043 Ry
     Harris-Foulkes estimate   =     -15.51241043 Ry
     estimated scf accuracy    <       0.00000029 Ry

     iteration # 78     ecut=    10.00 Ry     beta= 0.50
     Davidson diagonalization with overlap
     ethr =  2.65E-09,  avg # of iterations =  1.0

     total cpu time spent up to now is        0.4 secs

     total energy              =     -15.51241043 Ry
     Harris-Foulkes estimate   =     -15.51241043 Ry
     estimated scf accuracy    <       0.00000028 Ry

     iteration # 79     ecut=    10.00 Ry     beta= 0.50
     Davidson diagonalization with overlap
     ethr =  2.65E-09,  avg # of iterations =  1.0

     total cpu time spent up to now is        0.4 secs

     total energy              =     -15.51241043 Ry
     Harris-Foulkes estimate   =     -15.51241043 Ry
     estimated scf accuracy    <       0.00000029 Ry

     iteration # 80     ecut=    10.00 Ry     beta= 0.50
     Davidson diagonalization with overlap
     ethr =  2.65E-09,  avg # of iterations =  1.0

     total cpu time spent up to now is        0.4 secs

     total energy              =     -15.51241042 Ry
     Harris-Foulkes estimate   =     -15.51241043 Ry
     estimated scf accuracy    <       0.00000029 Ry

     iteration # 81     ecut=    10.00 Ry     beta= 0.50
     Davidson diagonalization with overlap
     ethr =  2.65E-09,  avg # of iterations =  1.0

     total cpu time spent up to now is        0.4 secs

     total energy              =     -15.51241028 Ry
     Harris-Foulkes estimate   =     -15.51241042 Ry
     estimated scf accuracy    <       0.00000026 Ry

     iteration # 82     ecut=    10.00 Ry     beta= 0.50
     Davidson diagonalization with overlap
     ethr =  2.65E-09,  avg # of iterations =  4.8

     total cpu time spent up to now is        0.5 secs

     total energy              =     -15.51240988 Ry
     Harris-Foulkes estimate   =     -15.51241085 Ry
     estimated scf accuracy    <       0.00000825 Ry

     iteration # 83     ecut=    10.00 Ry     beta= 0.50
     Davidson diagonalization with overlap
     ethr =  2.65E-09,  avg # of iterations =  3.6

     total cpu time spent up to now is        0.5 secs

     total energy              =     -15.51241039 Ry
     Harris-Foulkes estimate   =     -15.51241040 Ry
     estimated scf accuracy    <       0.00000030 Ry

     iteration # 84     ecut=    10.00 Ry     beta= 0.50
     Davidson diagonalization with overlap
     ethr =  2.65E-09,  avg # of iterations =  1.0

     total cpu time spent up to now is        0.5 secs

     total energy              =     -15.51241040 Ry
     Harris-Foulkes estimate   =     -15.51241040 Ry
     estimated scf accuracy    <       0.00000030 Ry

     iteration # 85     ecut=    10.00 Ry     beta= 0.50
     Davidson diagonalization with overlap
     ethr =  2.65E-09,  avg # of iterations =  1.0

     total cpu time spent up to now is        0.5 secs

     total energy              =     -15.51241042 Ry
     Harris-Foulkes estimate   =     -15.51241040 Ry
     estimated scf accuracy    <       0.00000031 Ry

     iteration # 86     ecut=    10.00 Ry     beta= 0.50
     Davidson diagonalization with overlap
     ethr =  2.65E-09,  avg # of iterations =  1.0

     total cpu time spent up to now is        0.5 secs

     total energy              =     -15.51241048 Ry
     Harris-Foulkes estimate   =     -15.51241042 Ry
     estimated scf accuracy    <       0.00000036 Ry

     iteration # 87     ecut=    10.00 Ry     beta= 0.50
     Davidson diagonalization with overlap
     ethr =  2.65E-09,  avg # of iterations =  1.0

     total cpu time spent up to now is        0.5 secs

     total energy              =     -15.51241047 Ry
     Harris-Foulkes estimate   =     -15.51241048 Ry
     estimated scf accuracy    <       0.00000054 Ry

     iteration # 88     ecut=    10.00 Ry     beta= 0.50
     Davidson diagonalization with overlap
     ethr =  2.65E-09,  avg # of iterations =  1.0

     total cpu time spent up to now is        0.5 secs

     total energy              =     -15.51241044 Ry
     Harris-Foulkes estimate   =     -15.51241048 Ry
     estimated scf accuracy    <       0.00000052 Ry

     iteration # 89     ecut=    10.00 Ry     beta= 0.50
     Davidson diagonalization with overlap
     ethr =  2.65E-09,  avg # of iterations =  1.0

     total cpu time spent up to now is        0.5 secs

     total energy              =     -15.51241043 Ry
     Harris-Foulkes estimate   =     -15.51241044 Ry
     estimated scf accuracy    <       0.00000045 Ry

     iteration # 90     ecut=    10.00 Ry     beta= 0.50
     Davidson diagonalization with overlap
     ethr =  2.65E-09,  avg # of iterations =  1.0

     total cpu time spent up to now is        0.5 secs

     total energy              =     -15.51241044 Ry
     Harris-Foulkes estimate   =     -15.51241043 Ry
     estimated scf accuracy    <       0.00000042 Ry

     iteration # 91     ecut=    10.00 Ry     beta= 0.50
     Davidson diagonalization with overlap
     ethr =  2.65E-09,  avg # of iterations =  1.0

     total cpu time spent up to now is        0.5 secs

     total energy              =     -15.51241021 Ry
     Harris-Foulkes estimate   =     -15.51241044 Ry
     estimated scf accuracy    <       0.00000043 Ry

     iteration # 92     ecut=    10.00 Ry     beta= 0.50
     Davidson diagonalization with overlap
     ethr =  2.65E-09,  avg # of iterations =  5.8

     total cpu time spent up to now is        0.5 secs

     total energy              =     -15.51240960 Ry
     Harris-Foulkes estimate   =     -15.51241123 Ry
     estimated scf accuracy    <       0.00001776 Ry

     iteration # 93     ecut=    10.00 Ry     beta= 0.50
     Davidson diagonalization with overlap
     ethr =  2.65E-09,  avg # of iterations =  3.4

     total cpu time spent up to now is        0.5 secs

     End of self-consistent calculation

          k = 0.0000 0.0000 0.0000 (   113 PWs)   bands (ev):

    -5.5497   8.7365  10.5563  11.8709

          k =-0.3536-0.3536 0.3536 (   108 PWs)   bands (ev):

    -2.2798  -0.4310   7.8126   9.1539

          k =-0.7071 0.0000 0.0000 (   116 PWs)   bands (ev):

    -0.5086  -0.5086   5.9120   5.9120

          k =-0.3536 0.3536 0.3536 (   108 PWs)   bands (ev):

    -2.9643   0.9952   7.3312   9.2442

          k = 0.0000 0.0000-0.7071 (   116 PWs)   bands (ev):

    -1.2860   0.6119   5.2160   6.0942

     highest occupied level (ev):    11.8709

!    total energy              =     -15.51241038 Ry
     Harris-Foulkes estimate   =     -15.51241038 Ry
     estimated scf accuracy    <          1.2E-09 Ry

     The total energy is the sum of the following terms:

     one-electron contribution =       6.76053871 Ry
     hartree contribution      =       1.01957064 Ry
     xc contribution           =      -5.11771040 Ry
     ewald contribution        =     -18.17480933 Ry

     convergence has been achieved in  93 iterations

     Forces acting on atoms (cartesian axes, Ry/au):

     atom    1 type  1   force =     0.00000000    0.00000000   -0.27704896
     atom    2 type  1   force =     0.00000000    0.00000000    0.27704896

     Total force =     0.391806     Total SCF correction =     0.000010


     Computing stress (Cartesian axis) and pressure

          total   stress  (Ry/bohr**3)                   (kbar)     P=  700.45
   0.00508296   0.00252574   0.00000000        747.73    371.55      0.00
   0.00252574   0.00508296  -0.00000000        371.55    747.73     -0.00
  -0.00000000  -0.00000000   0.00411884         -0.00     -0.00    605.90


     init_run     :      0.01s CPU      0.01s WALL (       1 calls)
     electrons    :      0.42s CPU      0.48s WALL (       1 calls)
     forces       :      0.00s CPU      0.00s WALL (       1 calls)
     stress       :      0.00s CPU      0.00s WALL (       1 calls)

     Called by init_run:
     wfcinit      :      0.00s CPU      0.00s WALL (       1 calls)
     potinit      :      0.00s CPU      0.00s WALL (       1 calls)
     hinit0       :      0.01s CPU      0.01s WALL (       1 calls)

     Called by electrons:
     c_bands      :      0.31s CPU      0.35s WALL (      94 calls)
     sum_band     :      0.06s CPU      0.07s WALL (      94 calls)
     v_of_rho     :      0.02s CPU      0.02s WALL (      94 calls)
     mix_rho      :      0.02s CPU      0.02s WALL (      94 calls)

     Called by c_bands:
     init_us_2    :      0.02s CPU      0.02s WALL (     955 calls)
     cegterg      :      0.28s CPU      0.31s WALL (     470 calls)

     Called by sum_band:

     Called by *egterg:
     h_psi        :      0.19s CPU      0.22s WALL (    1355 calls)
     g_psi        :      0.00s CPU      0.00s WALL (     880 calls)
     cdiaghg      :      0.04s CPU      0.04s WALL (    1345 calls)

     Called by h_psi:
     h_psi:pot    :      0.19s CPU      0.21s WALL (    1355 calls)
     h_psi:calbec :      0.01s CPU      0.01s WALL (    1355 calls)
     vloc_psi     :      0.16s CPU      0.18s WALL (    1355 calls)
     add_vuspsi   :      0.01s CPU      0.01s WALL (    1355 calls)

     General routines
     calbec       :      0.01s CPU      0.01s WALL (    1380 calls)
     fft          :      0.01s CPU      0.01s WALL (     287 calls)
     ffts         :      0.00s CPU      0.00s WALL (      94 calls)
     fftw         :      0.13s CPU      0.15s WALL (   10850 calls)

     Parallel routines

     PWSCF        :      0.46s CPU      0.52s WALL


   This run was terminated on:   1:42:32   7Oct2020            

=------------------------------------------------------------------------------=
   JOB DONE.
=------------------------------------------------------------------------------=
