
     Program PWSCF v.6.4.1 starts on  7Oct2020 at  1:42:34 

     This program is part of the open-source Quantum ESPRESSO suite
     for quantum simulation of materials; please cite
         "P. Giannozzi et al., J. Phys.:Condens. Matter 21 395502 (2009);
         "P. Giannozzi et al., J. Phys.:Condens. Matter 29 465901 (2017);
          URL http://www.quantum-espresso.org", 
     in publications or presentations arising from this work. More details at
     http://www.quantum-espresso.org/quote

     Parallel version (MPI), running on     1 processors

     MPI processes distributed on     1 nodes
     Waiting for input...
     Reading input from standard input
Warning: card &IONS ignored
Warning: card / ignored
Warning: card &CELL ignored
Warning: card / ignored

     Current dimensions of program PWSCF are:
     Max number of different atomic species (ntypx) = 10
     Max number of k-points (npk) =  40000
     Max angular momentum in pseudopotentials (lmaxx) =  3

     Subspace diagonalization in iterative solution of the eigenvalue problem:
     a serial algorithm will be used

     Message from routine setup:
     DEPRECATED: symmetry with ibrav=0, use correct ibrav instead

     G-vector sticks info
     --------------------
     sticks:   dense  smooth     PW     G-vecs:    dense   smooth      PW
     Sum         121     121     55                  893      893     259



     bravais-lattice index     =            0
     lattice parameter (alat)  =       6.6812  a.u.
     unit-cell volume          =     210.8855 (a.u.)^3
     number of atoms/cell      =            2
     number of atomic types    =            1
     number of electrons       =         8.00
     number of Kohn-Sham states=            4
     kinetic-energy cutoff     =      10.0000  Ry
     charge density cutoff     =      40.0000  Ry
     convergence threshold     =      1.0E-07
     mixing beta               =       0.5000
     number of iterations used =            8  plain     mixing
     Exchange-correlation      = SLA PZ NOGX NOGC ( 1  1  0  0 0 0)

     celldm(1)=   6.681191  celldm(2)=   0.000000  celldm(3)=   0.000000
     celldm(4)=   0.000000  celldm(5)=   0.000000  celldm(6)=   0.000000

     crystal axes: (cart. coord. in units of alat)
               a(1) = (   0.000000   0.707107   0.707107 )  
               a(2) = (   0.707107   0.000000   0.707107 )  
               a(3) = (   0.707107   0.707107   0.000000 )  

     reciprocal axes: (cart. coord. in units 2 pi/alat)
               b(1) = ( -0.707107  0.707107  0.707107 )  
               b(2) = (  0.707107 -0.707107  0.707107 )  
               b(3) = (  0.707107  0.707107 -0.707107 )  


     PseudoPot. # 1 for Ge read from file:
     /home/modeler/qe_pseudo/Ge.pz-bhs.UPF
     MD5 check sum: 4f8fee77de72fb640d24dcbf01bda005
     Pseudo is Norm-conserving, Zval =  4.0
     Generated by new atomic code, or converted to UPF format
     Using radial grid of  291 points,  2 beta functions with: 
                l(1) =   0
                l(2) =   1

     atomic species   valence    mass     pseudopotential
        Ge             4.00    72.63000     Ge( 1.00)

      4 Sym. Ops. (no inversion) found



   Cartesian axes

     site n.     atom                  positions (alat units)
         1           Ge  tau(   1) = (   0.0000000   0.0000000   0.0707107  )
         2           Ge  tau(   2) = (   0.3535534   0.3535534   0.3535534  )

     number of k points=    46
                       cart. coord. in units 2pi/alat
        k(    1) = (   0.0000000   0.0000000   0.0000000), wk =   0.0092593
        k(    2) = (   0.1178511   0.1178511  -0.1178511), wk =   0.0370370
        k(    3) = (   0.2357023   0.2357023  -0.2357023), wk =   0.0370370
        k(    4) = (  -0.3535534  -0.3535534   0.3535534), wk =   0.0185185
        k(    5) = (   0.2357023   0.0000000   0.0000000), wk =   0.0370370
        k(    6) = (   0.3535534   0.1178511  -0.1178511), wk =   0.0740741
        k(    7) = (  -0.2357023  -0.4714045   0.4714045), wk =   0.0740741
        k(    8) = (  -0.1178511  -0.3535534   0.3535534), wk =   0.0740741
        k(    9) = (   0.0000000  -0.2357023   0.2357023), wk =   0.0740741
        k(   10) = (   0.4714045   0.0000000   0.0000000), wk =   0.0370370
        k(   11) = (  -0.1178511  -0.5892557   0.5892557), wk =   0.0740741
        k(   12) = (  -0.0000000  -0.4714045   0.4714045), wk =   0.0740741
        k(   13) = (  -0.7071068   0.0000000   0.0000000), wk =   0.0185185
        k(   14) = (  -0.2357023  -0.4714045   0.7071068), wk =   0.0370370
        k(   15) = (  -0.1178511  -0.3535534   0.5892557), wk =   0.0740741
        k(   16) = (  -0.7071068   0.2357023   0.0000000), wk =   0.0370370
        k(   17) = (   0.1178511  -0.1178511  -0.1178511), wk =   0.0370370
        k(   18) = (   0.2357023  -0.2357023  -0.2357023), wk =   0.0370370
        k(   19) = (  -0.3535534   0.3535534   0.3535534), wk =   0.0185185
        k(   20) = (   0.0000000   0.0000000   0.2357023), wk =   0.0185185
        k(   21) = (   0.1178511  -0.3535534  -0.1178511), wk =   0.0740741
        k(   22) = (  -0.1178511  -0.1178511   0.3535534), wk =   0.0370370
        k(   23) = (   0.1178511  -0.1178511  -0.3535534), wk =   0.0370370
        k(   24) = (  -0.4714045   0.2357023   0.4714045), wk =   0.0740741
        k(   25) = (   0.4714045   0.4714045  -0.2357023), wk =   0.0370370
        k(   26) = (  -0.4714045   0.4714045   0.2357023), wk =   0.0370370
        k(   27) = (  -0.3535534   0.1178511   0.3535534), wk =   0.0740741
        k(   28) = (   0.3535534   0.3535534  -0.1178511), wk =   0.0370370
        k(   29) = (  -0.3535534   0.3535534   0.1178511), wk =   0.0370370
        k(   30) = (   0.2357023   0.2357023   0.0000000), wk =   0.0185185
        k(   31) = (  -0.2357023   0.2357023   0.0000000), wk =   0.0185185
        k(   32) = (   0.0000000   0.0000000   0.4714045), wk =   0.0185185
        k(   33) = (  -0.5892557   0.1178511   0.5892557), wk =   0.0740741
        k(   34) = (   0.5892557   0.5892557  -0.1178511), wk =   0.0370370
        k(   35) = (  -0.5892557   0.5892557   0.1178511), wk =   0.0370370
        k(   36) = (   0.4714045   0.4714045  -0.0000000), wk =   0.0185185
        k(   37) = (  -0.4714045   0.4714045   0.0000000), wk =   0.0185185
        k(   38) = (   0.0000000   0.0000000  -0.7071068), wk =   0.0092593
        k(   39) = (  -0.4714045   0.2357023   0.7071068), wk =   0.0370370
        k(   40) = (   0.7071068   0.4714045  -0.2357023), wk =   0.0740741
        k(   41) = (   0.2357023   0.7071068  -0.4714045), wk =   0.0740741
        k(   42) = (  -0.3535534   0.1178511   0.5892557), wk =   0.0740741
        k(   43) = (   0.1178511   0.5892557  -0.3535534), wk =   0.0370370
        k(   44) = (   0.1178511  -0.5892557   0.3535534), wk =   0.0370370
        k(   45) = (   0.0000000  -0.2357023  -0.7071068), wk =   0.0370370
        k(   46) = (   0.7071068   0.0000000   0.2357023), wk =   0.0370370

     Dense  grid:      893 G-vectors     FFT dimensions: (  15,  15,  15)

     Estimated max dynamical RAM per process >       1.05 MB

     Initial potential from superposition of free atoms

     starting charge    6.99990, renormalised to    8.00000
     Starting wfcs are    8 randomized atomic wfcs

     total cpu time spent up to now is        0.1 secs

     Self-consistent Calculation

     iteration #  1     ecut=    10.00 Ry     beta= 0.50
     Davidson diagonalization with overlap
     ethr =  1.00E-02,  avg # of iterations =  1.7

     Threshold (ethr) on eigenvalues was too large:
     Diagonalizing with lowered threshold

     Davidson diagonalization with overlap
     ethr =  3.03E-04,  avg # of iterations =  2.8

     total cpu time spent up to now is        0.1 secs

     total energy              =     -15.80688366 Ry
     Harris-Foulkes estimate   =     -15.80971716 Ry
     estimated scf accuracy    <       0.02702615 Ry

     iteration #  2     ecut=    10.00 Ry     beta= 0.50
     Davidson diagonalization with overlap
     ethr =  3.38E-04,  avg # of iterations =  1.0

     total cpu time spent up to now is        0.2 secs

     total energy              =     -15.80632473 Ry
     Harris-Foulkes estimate   =     -15.80709346 Ry
     estimated scf accuracy    <       0.00607388 Ry

     iteration #  3     ecut=    10.00 Ry     beta= 0.50
     Davidson diagonalization with overlap
     ethr =  7.59E-05,  avg # of iterations =  1.0

     total cpu time spent up to now is        0.2 secs

     total energy              =     -15.80643230 Ry
     Harris-Foulkes estimate   =     -15.80644906 Ry
     estimated scf accuracy    <       0.00003608 Ry

     iteration #  4     ecut=    10.00 Ry     beta= 0.50
     Davidson diagonalization with overlap
     ethr =  4.51E-07,  avg # of iterations =  3.4

     total cpu time spent up to now is        0.3 secs

     total energy              =     -15.80646508 Ry
     Harris-Foulkes estimate   =     -15.80646541 Ry
     estimated scf accuracy    <       0.00000071 Ry

     iteration #  5     ecut=    10.00 Ry     beta= 0.50
     Davidson diagonalization with overlap
     ethr =  8.88E-09,  avg # of iterations =  2.3

     total cpu time spent up to now is        0.3 secs

     End of self-consistent calculation

          k = 0.0000 0.0000 0.0000 (   113 PWs)   bands (ev):

    -5.7840   8.4606  10.2370  11.5209

          k = 0.1179 0.1179-0.1179 (   116 PWs)   bands (ev):

    -5.3599   5.8650   8.9431  10.0629

          k = 0.2357 0.2357-0.2357 (   111 PWs)   bands (ev):

    -4.0767   1.9081   7.9045   9.1494

          k =-0.3536-0.3536 0.3536 (   108 PWs)   bands (ev):

    -2.5687  -0.5894   7.5572   8.8723

          k = 0.2357 0.0000 0.0000 (   113 PWs)   bands (ev):

    -5.2322   6.4358   8.1213   8.7844

          k = 0.3536 0.1179-0.1179 (   115 PWs)   bands (ev):

    -4.2176   3.0633   6.9870   7.8483

          k =-0.2357-0.4714 0.4714 (   115 PWs)   bands (ev):

    -2.4992  -0.0052   6.0630   7.3175

          k =-0.1179-0.3536 0.3536 (   115 PWs)   bands (ev):

    -3.1724   1.0862   5.5865   7.9732

          k = 0.0000-0.2357 0.2357 (   111 PWs)   bands (ev):

    -4.6810   4.6666   6.0533   9.2892

          k = 0.4714 0.0000 0.0000 (   113 PWs)   bands (ev):

    -3.5455   2.8437   6.2858   6.4821

          k =-0.1179-0.5893 0.5893 (   108 PWs)   bands (ev):

    -1.9390   0.4825   4.7715   6.1247

          k =-0.0000-0.4714 0.4714 (   116 PWs)   bands (ev):

    -1.8636   0.6728   3.2899   6.7984

          k =-0.7071 0.0000 0.0000 (   116 PWs)   bands (ev):

    -0.7645  -0.7645   5.6904   5.6904

          k =-0.2357-0.4714 0.7071 (   110 PWs)   bands (ev):

    -2.8790   1.3312   4.6679   7.0342

          k =-0.1179-0.3536 0.5893 (   112 PWs)   bands (ev):

    -1.4430  -0.1123   3.8302   6.0705

          k =-0.7071 0.2357 0.0000 (   110 PWs)   bands (ev):

    -0.9860  -0.0748   4.2136   4.6409

          k = 0.1179-0.1179-0.1179 (   116 PWs)   bands (ev):

    -5.3856   6.9054   7.9911   9.9440

          k = 0.2357-0.2357-0.2357 (   111 PWs)   bands (ev):

    -4.2411   2.8514   7.3258   9.1678

          k =-0.3536 0.3536 0.3536 (   108 PWs)   bands (ev):

    -3.2196   0.7983   7.0752   8.9356

          k = 0.0000 0.0000 0.2357 (   113 PWs)   bands (ev):

    -5.2273   7.1494   7.4453   8.5177

          k = 0.1179-0.3536-0.1179 (   115 PWs)   bands (ev):

    -4.3184   4.2720   5.9799   7.6145

          k =-0.1179-0.1179 0.3536 (   115 PWs)   bands (ev):

    -4.2491   3.5270   6.4774   7.6514

          k = 0.1179-0.1179-0.3536 (   115 PWs)   bands (ev):

    -4.2950   4.0039   6.4440   7.4436

          k =-0.4714 0.2357 0.4714 (   115 PWs)   bands (ev):

    -3.0104   1.3813   5.0954   7.5362

          k = 0.4714 0.4714-0.2357 (   115 PWs)   bands (ev):

    -2.5533   0.1743   5.4611   7.6892

          k =-0.4714 0.4714 0.2357 (   115 PWs)   bands (ev):

    -3.0093   1.2890   6.2703   6.3802

          k =-0.3536 0.1179 0.3536 (   115 PWs)   bands (ev):

    -3.3814   2.0230   4.8121   8.2300

          k = 0.3536 0.3536-0.1179 (   115 PWs)   bands (ev):

    -3.0587   0.8013   5.2480   8.5982

          k =-0.3536 0.3536 0.1179 (   115 PWs)   bands (ev):

    -3.4632   2.2133   5.6930   6.9656

          k = 0.2357 0.2357 0.0000 (   111 PWs)   bands (ev):

    -4.6227   3.7634   6.4467  10.1150

          k =-0.2357 0.2357 0.0000 (   111 PWs)   bands (ev):

    -4.7374   5.7927   6.0242   7.8438

          k = 0.0000 0.0000 0.4714 (   113 PWs)   bands (ev):

    -3.5720   3.3220   5.5842   6.5552

          k =-0.5893 0.1179 0.5893 (   108 PWs)   bands (ev):

    -2.2261   1.2971   4.1501   6.1750

          k = 0.5893 0.5893-0.1179 (   108 PWs)   bands (ev):

    -2.1093   1.1311   3.8441   6.3658

          k =-0.5893 0.5893 0.1179 (   108 PWs)   bands (ev):

    -2.2928   1.4434   4.8285   5.3955

          k = 0.4714 0.4714-0.0000 (   116 PWs)   bands (ev):

    -1.2856  -0.2145   3.1332   7.1180

          k =-0.4714 0.4714 0.0000 (   116 PWs)   bands (ev):

    -2.2640   1.6796   3.4840   5.9546

          k = 0.0000 0.0000-0.7071 (   116 PWs)   bands (ev):

    -1.5173   0.3085   5.0036   5.8872

          k =-0.4714 0.2357 0.7071 (   110 PWs)   bands (ev):

    -3.2156   3.1126   4.4697   5.5754

          k = 0.7071 0.4714-0.2357 (   110 PWs)   bands (ev):

    -3.0838   2.3449   4.2954   6.4569

          k = 0.2357 0.7071-0.4714 (   110 PWs)   bands (ev):

    -3.0574   2.0649   4.5076   6.5726

          k =-0.3536 0.1179 0.5893 (   112 PWs)   bands (ev):

    -2.1480   1.3323   3.8809   5.2901

          k = 0.1179 0.5893-0.3536 (   112 PWs)   bands (ev):

    -1.5205  -0.1145   4.5925   5.3959

          k = 0.1179-0.5893 0.3536 (   112 PWs)   bands (ev):

    -2.0065   1.0724   3.3053   6.0721

          k = 0.0000-0.2357-0.7071 (   110 PWs)   bands (ev):

    -1.2833   0.4622   3.7775   4.7983

          k = 0.7071 0.0000 0.2357 (   110 PWs)   bands (ev):

    -0.5758  -0.5758   4.4825   4.4825

     highest occupied level (ev):    11.5209

!    total energy              =     -15.80646520 Ry
     Harris-Foulkes estimate   =     -15.80646521 Ry
     estimated scf accuracy    <       0.00000005 Ry

     The total energy is the sum of the following terms:

     one-electron contribution =       6.56119490 Ry
     hartree contribution      =       0.85538205 Ry
     xc contribution           =      -5.04823282 Ry
     ewald contribution        =     -18.17480933 Ry

     convergence has been achieved in   5 iterations

     Forces acting on atoms (cartesian axes, Ry/au):

     atom    1 type  1   force =     0.00000000    0.00000000   -0.21235481
     atom    2 type  1   force =     0.00000000    0.00000000    0.21235481

     Total force =     0.300315     Total SCF correction =     0.000030


     Computing stress (Cartesian axis) and pressure

          total   stress  (Ry/bohr**3)                   (kbar)     P=  530.62
   0.00387683   0.00228072   0.00000000        570.30    335.50      0.00
   0.00228072   0.00387683   0.00000000        335.50    570.30      0.00
  -0.00000000   0.00000000   0.00306765         -0.00      0.00    451.27


     init_run     :      0.03s CPU      0.04s WALL (       1 calls)
     electrons    :      0.24s CPU      0.26s WALL (       1 calls)
     forces       :      0.00s CPU      0.00s WALL (       1 calls)
     stress       :      0.01s CPU      0.02s WALL (       1 calls)

     Called by init_run:
     wfcinit      :      0.03s CPU      0.03s WALL (       1 calls)
     potinit      :      0.00s CPU      0.00s WALL (       1 calls)
     hinit0       :      0.00s CPU      0.01s WALL (       1 calls)

     Called by electrons:
     c_bands      :      0.20s CPU      0.22s WALL (       6 calls)
     sum_band     :      0.03s CPU      0.03s WALL (       6 calls)
     v_of_rho     :      0.00s CPU      0.00s WALL (       6 calls)
     mix_rho      :      0.00s CPU      0.00s WALL (       6 calls)

     Called by c_bands:
     init_us_2    :      0.01s CPU      0.02s WALL (     690 calls)
     cegterg      :      0.19s CPU      0.20s WALL (     276 calls)

     Called by sum_band:

     Called by *egterg:
     h_psi        :      0.15s CPU      0.16s WALL (     882 calls)
     g_psi        :      0.00s CPU      0.00s WALL (     560 calls)
     cdiaghg      :      0.03s CPU      0.03s WALL (     790 calls)

     Called by h_psi:
     h_psi:pot    :      0.15s CPU      0.16s WALL (     882 calls)
     h_psi:calbec :      0.01s CPU      0.01s WALL (     882 calls)
     vloc_psi     :      0.13s CPU      0.14s WALL (     882 calls)
     add_vuspsi   :      0.01s CPU      0.01s WALL (     882 calls)

     General routines
     calbec       :      0.01s CPU      0.01s WALL (    1112 calls)
     fft          :      0.00s CPU      0.00s WALL (      23 calls)
     ffts         :      0.00s CPU      0.00s WALL (       6 calls)
     fftw         :      0.11s CPU      0.11s WALL (    7546 calls)

     Parallel routines

     PWSCF        :      0.32s CPU      0.34s WALL


   This run was terminated on:   1:42:35   7Oct2020            

=------------------------------------------------------------------------------=
   JOB DONE.
=------------------------------------------------------------------------------=
