
     Program PWSCF v.6.4.1 starts on  7Oct2020 at  0:38: 0 

     This program is part of the open-source Quantum ESPRESSO suite
     for quantum simulation of materials; please cite
         "P. Giannozzi et al., J. Phys.:Condens. Matter 21 395502 (2009);
         "P. Giannozzi et al., J. Phys.:Condens. Matter 29 465901 (2017);
          URL http://www.quantum-espresso.org", 
     in publications or presentations arising from this work. More details at
     http://www.quantum-espresso.org/quote

     Parallel version (MPI), running on     1 processors

     MPI processes distributed on     1 nodes
     Waiting for input...
     Reading input from standard input
Warning: card &IONS ignored
Warning: card / ignored
Warning: card &CELL ignored
Warning: card / ignored

     Current dimensions of program PWSCF are:
     Max number of different atomic species (ntypx) = 10
     Max number of k-points (npk) =  40000
     Max angular momentum in pseudopotentials (lmaxx) =  3

     Subspace diagonalization in iterative solution of the eigenvalue problem:
     a serial algorithm will be used

     Message from routine setup:
     DEPRECATED: symmetry with ibrav=0, use correct ibrav instead

     G-vector sticks info
     --------------------
     sticks:   dense  smooth     PW     G-vecs:    dense   smooth      PW
     Sum         433     433    139                 5961     5961    1067



     bravais-lattice index     =            0
     lattice parameter (alat)  =       6.6812  a.u.
     unit-cell volume          =     210.8855 (a.u.)^3
     number of atoms/cell      =            2
     number of atomic types    =            1
     number of electrons       =         8.00
     number of Kohn-Sham states=            4
     kinetic-energy cutoff     =      35.0000  Ry
     charge density cutoff     =     140.0000  Ry
     convergence threshold     =      1.0E-07
     mixing beta               =       0.5000
     number of iterations used =            8  plain     mixing
     Exchange-correlation      = SLA PZ NOGX NOGC ( 1  1  0  0 0 0)

     celldm(1)=   6.681191  celldm(2)=   0.000000  celldm(3)=   0.000000
     celldm(4)=   0.000000  celldm(5)=   0.000000  celldm(6)=   0.000000

     crystal axes: (cart. coord. in units of alat)
               a(1) = (   0.000000   0.707107   0.707107 )  
               a(2) = (   0.707107   0.000000   0.707107 )  
               a(3) = (   0.707107   0.707107   0.000000 )  

     reciprocal axes: (cart. coord. in units 2 pi/alat)
               b(1) = ( -0.707107  0.707107  0.707107 )  
               b(2) = (  0.707107 -0.707107  0.707107 )  
               b(3) = (  0.707107  0.707107 -0.707107 )  


     PseudoPot. # 1 for Ge read from file:
     /home/modeler/qe_pseudo/Ge.pz-bhs.UPF
     MD5 check sum: 4f8fee77de72fb640d24dcbf01bda005
     Pseudo is Norm-conserving, Zval =  4.0
     Generated by new atomic code, or converted to UPF format
     Using radial grid of  291 points,  2 beta functions with: 
                l(1) =   0
                l(2) =   1

     atomic species   valence    mass     pseudopotential
        Ge             4.00    72.63000     Ge( 1.00)

      4 Sym. Ops. (no inversion) found



   Cartesian axes

     site n.     atom                  positions (alat units)
         1           Ge  tau(   1) = (   0.0000000   0.0000000   0.0707107  )
         2           Ge  tau(   2) = (   0.3535534   0.3535534   0.3535534  )

     number of k points=    18
                       cart. coord. in units 2pi/alat
        k(    1) = (   0.0000000   0.0000000   0.0000000), wk =   0.0312500
        k(    2) = (   0.1767767   0.1767767  -0.1767767), wk =   0.1250000
        k(    3) = (  -0.3535534  -0.3535534   0.3535534), wk =   0.0625000
        k(    4) = (   0.3535534   0.0000000   0.0000000), wk =   0.1250000
        k(    5) = (  -0.1767767  -0.5303301   0.5303301), wk =   0.2500000
        k(    6) = (   0.0000000  -0.3535534   0.3535534), wk =   0.2500000
        k(    7) = (  -0.7071068   0.0000000   0.0000000), wk =   0.0625000
        k(    8) = (  -0.7071068   0.3535534   0.0000000), wk =   0.1250000
        k(    9) = (   0.1767767  -0.1767767  -0.1767767), wk =   0.1250000
        k(   10) = (  -0.3535534   0.3535534   0.3535534), wk =   0.0625000
        k(   11) = (   0.0000000   0.0000000   0.3535534), wk =   0.0625000
        k(   12) = (  -0.5303301   0.1767767   0.5303301), wk =   0.2500000
        k(   13) = (   0.5303301   0.5303301  -0.1767767), wk =   0.1250000
        k(   14) = (  -0.5303301   0.5303301   0.1767767), wk =   0.1250000
        k(   15) = (   0.3535534   0.3535534   0.0000000), wk =   0.0625000
        k(   16) = (  -0.3535534   0.3535534   0.0000000), wk =   0.0625000
        k(   17) = (   0.0000000   0.0000000  -0.7071068), wk =   0.0312500
        k(   18) = (   0.7071068  -0.0000000   0.3535534), wk =   0.0625000

     Dense  grid:     5961 G-vectors     FFT dimensions: (  25,  25,  25)

     Estimated max dynamical RAM per process >       4.95 MB

     Initial potential from superposition of free atoms

     starting charge    6.99990, renormalised to    8.00000
     Starting wfcs are    8 randomized atomic wfcs

     total cpu time spent up to now is        0.1 secs

     Self-consistent Calculation

     iteration #  1     ecut=    35.00 Ry     beta= 0.50
     Davidson diagonalization with overlap
     ethr =  1.00E-02,  avg # of iterations =  1.6

     Threshold (ethr) on eigenvalues was too large:
     Diagonalizing with lowered threshold

     Davidson diagonalization with overlap
     ethr =  3.06E-04,  avg # of iterations =  3.1

     total cpu time spent up to now is        0.4 secs

     total energy              =     -15.82399344 Ry
     Harris-Foulkes estimate   =     -15.82871608 Ry
     estimated scf accuracy    <       0.03028700 Ry

     iteration #  2     ecut=    35.00 Ry     beta= 0.50
     Davidson diagonalization with overlap
     ethr =  3.79E-04,  avg # of iterations =  1.0

     total cpu time spent up to now is        0.5 secs

     total energy              =     -15.82313301 Ry
     Harris-Foulkes estimate   =     -15.82429353 Ry
     estimated scf accuracy    <       0.00650823 Ry

     iteration #  3     ecut=    35.00 Ry     beta= 0.50
     Davidson diagonalization with overlap
     ethr =  8.14E-05,  avg # of iterations =  1.0

     total cpu time spent up to now is        0.6 secs

     total energy              =     -15.82330372 Ry
     Harris-Foulkes estimate   =     -15.82332445 Ry
     estimated scf accuracy    <       0.00004738 Ry

     iteration #  4     ecut=    35.00 Ry     beta= 0.50
     Davidson diagonalization with overlap
     ethr =  5.92E-07,  avg # of iterations =  3.3

     total cpu time spent up to now is        0.7 secs

     total energy              =     -15.82334485 Ry
     Harris-Foulkes estimate   =     -15.82334602 Ry
     estimated scf accuracy    <       0.00000273 Ry

     iteration #  5     ecut=    35.00 Ry     beta= 0.50
     Davidson diagonalization with overlap
     ethr =  3.41E-08,  avg # of iterations =  2.0

     total cpu time spent up to now is        0.8 secs

     total energy              =     -15.82334515 Ry
     Harris-Foulkes estimate   =     -15.82334514 Ry
     estimated scf accuracy    <       0.00000014 Ry

     iteration #  6     ecut=    35.00 Ry     beta= 0.50
     Davidson diagonalization with overlap
     ethr =  1.77E-09,  avg # of iterations =  2.3

     total cpu time spent up to now is        1.0 secs

     End of self-consistent calculation

          k = 0.0000 0.0000 0.0000 (   725 PWs)   bands (ev):

    -5.7931   8.4612  10.2340  11.5161

          k = 0.1768 0.1768-0.1768 (   745 PWs)   bands (ev):

    -4.8289   3.7987   8.3284   9.5023

          k =-0.3536-0.3536 0.3536 (   754 PWs)   bands (ev):

    -2.5753  -0.6125   7.5350   8.8468

          k = 0.3536 0.0000 0.0000 (   729 PWs)   bands (ev):

    -4.5352   4.6986   7.0442   7.4231

          k =-0.1768-0.5303 0.5303 (   735 PWs)   bands (ev):

    -2.3100   0.4212   5.0333   6.6195

          k = 0.0000-0.3536 0.3536 (   742 PWs)   bands (ev):

    -3.3727   2.3311   4.1537   8.0019

          k =-0.7071 0.0000 0.0000 (   740 PWs)   bands (ev):

    -0.7703  -0.7703   5.6714   5.6714

          k =-0.7071 0.3536 0.0000 (   724 PWs)   bands (ev):

    -1.1284   0.3043   3.6078   4.4290

          k = 0.1768-0.1768-0.1768 (   745 PWs)   bands (ev):

    -4.8983   4.7172   7.6207   9.4729

          k =-0.3536 0.3536 0.3536 (   754 PWs)   bands (ev):

    -3.2239   0.7708   7.0527   8.9167

          k = 0.0000 0.0000 0.3536 (   729 PWs)   bands (ev):

    -4.5446   5.3621   6.2587   7.3559

          k =-0.5303 0.1768 0.5303 (   735 PWs)   bands (ev):

    -2.7111   1.7727   3.9749   6.7416

          k = 0.5303 0.5303-0.1768 (   735 PWs)   bands (ev):

    -2.4132   0.8501   4.2239   6.9168

          k =-0.5303 0.5303 0.1768 (   735 PWs)   bands (ev):

    -2.7281   1.6217   5.0360   5.8270

          k = 0.3536 0.3536 0.0000 (   742 PWs)   bands (ev):

    -3.1711   1.4161   4.3848   8.5056

          k =-0.3536 0.3536 0.0000 (   742 PWs)   bands (ev):

    -3.5371   3.3735   4.1692   6.9251

          k = 0.0000 0.0000-0.7071 (   740 PWs)   bands (ev):

    -1.5205   0.2991   4.9855   5.8620

          k = 0.7071-0.0000 0.3536 (   724 PWs)   bands (ev):

    -0.5263  -0.5262   4.1507   4.1507

     highest occupied level (ev):    11.5161

!    total energy              =     -15.82334515 Ry
     Harris-Foulkes estimate   =     -15.82334519 Ry
     estimated scf accuracy    <       0.00000008 Ry

     The total energy is the sum of the following terms:

     one-electron contribution =       6.52771849 Ry
     hartree contribution      =       0.88755417 Ry
     xc contribution           =      -5.06380847 Ry
     ewald contribution        =     -18.17480934 Ry

     convergence has been achieved in   6 iterations

     Forces acting on atoms (cartesian axes, Ry/au):

     atom    1 type  1   force =     0.00000000    0.00000000   -0.21722257
     atom    2 type  1   force =     0.00000000    0.00000000    0.21722257

     Total force =     0.307199     Total SCF correction =     0.000062


     Computing stress (Cartesian axis) and pressure

          total   stress  (Ry/bohr**3)                   (kbar)     P=  590.65
   0.00427859   0.00220672  -0.00000000        629.40    324.62     -0.00
   0.00220672   0.00427859   0.00000000        324.62    629.40      0.00
   0.00000000   0.00000000   0.00348840          0.00      0.00    513.16


     init_run     :      0.09s CPU      0.10s WALL (       1 calls)
     electrons    :      0.79s CPU      0.82s WALL (       1 calls)
     forces       :      0.01s CPU      0.01s WALL (       1 calls)
     stress       :      0.05s CPU      0.05s WALL (       1 calls)

     Called by init_run:
     wfcinit      :      0.07s CPU      0.08s WALL (       1 calls)
     potinit      :      0.00s CPU      0.00s WALL (       1 calls)
     hinit0       :      0.02s CPU      0.02s WALL (       1 calls)

     Called by electrons:
     c_bands      :      0.66s CPU      0.69s WALL (       7 calls)
     sum_band     :      0.12s CPU      0.12s WALL (       7 calls)
     v_of_rho     :      0.01s CPU      0.01s WALL (       7 calls)
     mix_rho      :      0.00s CPU      0.01s WALL (       7 calls)

     Called by c_bands:
     init_us_2    :      0.04s CPU      0.04s WALL (     306 calls)
     cegterg      :      0.63s CPU      0.65s WALL (     126 calls)

     Called by sum_band:

     Called by *egterg:
     h_psi        :      0.57s CPU      0.60s WALL (     401 calls)
     g_psi        :      0.01s CPU      0.01s WALL (     257 calls)
     cdiaghg      :      0.02s CPU      0.02s WALL (     365 calls)

     Called by h_psi:
     h_psi:pot    :      0.57s CPU      0.60s WALL (     401 calls)
     h_psi:calbec :      0.02s CPU      0.02s WALL (     401 calls)
     vloc_psi     :      0.52s CPU      0.55s WALL (     401 calls)
     add_vuspsi   :      0.02s CPU      0.02s WALL (     401 calls)

     General routines
     calbec       :      0.02s CPU      0.03s WALL (     491 calls)
     fft          :      0.00s CPU      0.00s WALL (      26 calls)
     ffts         :      0.00s CPU      0.00s WALL (       7 calls)
     fftw         :      0.52s CPU      0.54s WALL (    3456 calls)

     Parallel routines

     PWSCF        :      0.97s CPU      1.02s WALL


   This run was terminated on:   0:38: 1   7Oct2020            

=------------------------------------------------------------------------------=
   JOB DONE.
=------------------------------------------------------------------------------=
