
     Program PWSCF v.6.4.1 starts on  7Oct2020 at  2: 2: 5 

     This program is part of the open-source Quantum ESPRESSO suite
     for quantum simulation of materials; please cite
         "P. Giannozzi et al., J. Phys.:Condens. Matter 21 395502 (2009);
         "P. Giannozzi et al., J. Phys.:Condens. Matter 29 465901 (2017);
          URL http://www.quantum-espresso.org", 
     in publications or presentations arising from this work. More details at
     http://www.quantum-espresso.org/quote

     Parallel version (MPI), running on     1 processors

     MPI processes distributed on     1 nodes
     Waiting for input...
     Reading input from standard input
Warning: card &IONS ignored
Warning: card / ignored
Warning: card &CELL ignored
Warning: card / ignored

     Current dimensions of program PWSCF are:
     Max number of different atomic species (ntypx) = 10
     Max number of k-points (npk) =  40000
     Max angular momentum in pseudopotentials (lmaxx) =  3

     Subspace diagonalization in iterative solution of the eigenvalue problem:
     a serial algorithm will be used

     Message from routine setup:
     DEPRECATED: symmetry with ibrav=0, use correct ibrav instead

     G-vector sticks info
     --------------------
     sticks:   dense  smooth     PW     G-vecs:    dense   smooth      PW
     Sum         241     241     85                 2421     2421     531



     bravais-lattice index     =            0
     lattice parameter (alat)  =       7.5660  a.u.
     unit-cell volume          =     306.2608 (a.u.)^3
     number of atoms/cell      =            2
     number of atomic types    =            1
     number of electrons       =         8.00
     number of Kohn-Sham states=            4
     kinetic-energy cutoff     =      15.0000  Ry
     charge density cutoff     =      60.0000  Ry
     convergence threshold     =      1.0E-07
     mixing beta               =       0.5000
     number of iterations used =            8  plain     mixing
     Exchange-correlation      = SLA PZ NOGX NOGC ( 1  1  0  0 0 0)

     celldm(1)=   7.566043  celldm(2)=   0.000000  celldm(3)=   0.000000
     celldm(4)=   0.000000  celldm(5)=   0.000000  celldm(6)=   0.000000

     crystal axes: (cart. coord. in units of alat)
               a(1) = (   0.000000   0.707107   0.707107 )  
               a(2) = (   0.707107   0.000000   0.707107 )  
               a(3) = (   0.707107   0.707107   0.000000 )  

     reciprocal axes: (cart. coord. in units 2 pi/alat)
               b(1) = ( -0.707107  0.707107  0.707107 )  
               b(2) = (  0.707107 -0.707107  0.707107 )  
               b(3) = (  0.707107  0.707107 -0.707107 )  


     PseudoPot. # 1 for Ge read from file:
     /home/modeler/qe_pseudo/Ge.pz-bhs.UPF
     MD5 check sum: 4f8fee77de72fb640d24dcbf01bda005
     Pseudo is Norm-conserving, Zval =  4.0
     Generated by new atomic code, or converted to UPF format
     Using radial grid of  291 points,  2 beta functions with: 
                l(1) =   0
                l(2) =   1

     atomic species   valence    mass     pseudopotential
        Ge             4.00    72.63000     Ge( 1.00)

     48 Sym. Ops., with inversion, found (24 have fractional translation)



   Cartesian axes

     site n.     atom                  positions (alat units)
         1           Ge  tau(   1) = (   0.0000000   0.0000000   0.0000000  )
         2           Ge  tau(   2) = (   0.3535536   0.3535536   0.3535536  )

     number of k points=     8
                       cart. coord. in units 2pi/alat
        k(    1) = (   0.0000000   0.0000000   0.0000000), wk =   0.0312500
        k(    2) = (   0.1767767   0.1767767  -0.1767767), wk =   0.2500000
        k(    3) = (  -0.3535534  -0.3535534   0.3535534), wk =   0.1250000
        k(    4) = (   0.3535534   0.0000000   0.0000000), wk =   0.1875000
        k(    5) = (  -0.1767767  -0.5303301   0.5303301), wk =   0.7500000
        k(    6) = (   0.0000000  -0.3535534   0.3535534), wk =   0.3750000
        k(    7) = (  -0.7071068   0.0000000   0.0000000), wk =   0.0937500
        k(    8) = (  -0.7071068   0.3535534   0.0000000), wk =   0.1875000

     Dense  grid:     2421 G-vectors     FFT dimensions: (  20,  20,  20)

     Estimated max dynamical RAM per process >       1.98 MB

     Initial potential from superposition of free atoms

     starting charge    6.99990, renormalised to    8.00000
     Starting wfcs are    8 randomized atomic wfcs

     total cpu time spent up to now is        0.1 secs

     Self-consistent Calculation

     iteration #  1     ecut=    15.00 Ry     beta= 0.50
     Davidson diagonalization with overlap
     ethr =  1.00E-02,  avg # of iterations =  1.2

     Threshold (ethr) on eigenvalues was too large:
     Diagonalizing with lowered threshold

     Davidson diagonalization with overlap
     ethr =  3.24E-04,  avg # of iterations =  2.6

     total cpu time spent up to now is        0.1 secs

     total energy              =     -15.98928712 Ry
     Harris-Foulkes estimate   =     -15.99312727 Ry
     estimated scf accuracy    <       0.02744768 Ry

     iteration #  2     ecut=    15.00 Ry     beta= 0.50
     Davidson diagonalization with overlap
     ethr =  3.43E-04,  avg # of iterations =  1.0

     total cpu time spent up to now is        0.1 secs

     total energy              =     -15.98816518 Ry
     Harris-Foulkes estimate   =     -15.98940213 Ry
     estimated scf accuracy    <       0.00656990 Ry

     iteration #  3     ecut=    15.00 Ry     beta= 0.50
     Davidson diagonalization with overlap
     ethr =  8.21E-05,  avg # of iterations =  1.0

     total cpu time spent up to now is        0.1 secs

     total energy              =     -15.98824891 Ry
     Harris-Foulkes estimate   =     -15.98825312 Ry
     estimated scf accuracy    <       0.00000819 Ry

     iteration #  4     ecut=    15.00 Ry     beta= 0.50
     Davidson diagonalization with overlap
     ethr =  1.02E-07,  avg # of iterations =  4.8

     total cpu time spent up to now is        0.1 secs

     total energy              =     -15.98827807 Ry
     Harris-Foulkes estimate   =     -15.98827823 Ry
     estimated scf accuracy    <       0.00000057 Ry

     iteration #  5     ecut=    15.00 Ry     beta= 0.50
     Davidson diagonalization with overlap
     ethr =  7.10E-09,  avg # of iterations =  2.4

     total cpu time spent up to now is        0.2 secs

     total energy              =     -15.98827810 Ry
     Harris-Foulkes estimate   =     -15.98827819 Ry
     estimated scf accuracy    <       0.00000016 Ry

     iteration #  6     ecut=    15.00 Ry     beta= 0.50
     Davidson diagonalization with overlap
     ethr =  1.98E-09,  avg # of iterations =  2.1

     total cpu time spent up to now is        0.2 secs

     End of self-consistent calculation

          k = 0.0000 0.0000 0.0000 (   307 PWs)   bands (ev):

    -7.1333   5.4232   5.4232   5.4232

          k = 0.1768 0.1768-0.1768 (   302 PWs)   bands (ev):

    -6.4408   0.7218   4.5730   4.5730

          k =-0.3536-0.3536 0.3536 (   302 PWs)   bands (ev):

    -5.1734  -2.1492   4.0730   4.0730

          k = 0.3536 0.0000 0.0000 (   303 PWs)   bands (ev):

    -6.1893   0.7155   3.4354   3.4354

          k =-0.1768-0.5303 0.5303 (   298 PWs)   bands (ev):

    -4.7784  -1.9572   1.7404   3.0875

          k = 0.0000-0.3536 0.3536 (   307 PWs)   bands (ev):

    -5.3637  -1.1068   1.5976   3.9685

          k =-0.7071 0.0000 0.0000 (   302 PWs)   bands (ev):

    -3.4394  -3.4394   2.4293   2.4293

          k =-0.7071 0.3536 0.0000 (   308 PWs)   bands (ev):

    -3.3456  -3.3456   1.5623   1.5623

     highest occupied level (ev):     5.4232

!    total energy              =     -15.98827812 Ry
     Harris-Foulkes estimate   =     -15.98827812 Ry
     estimated scf accuracy    <       0.00000002 Ry

     The total energy is the sum of the following terms:

     one-electron contribution =       3.56833707 Ry
     hartree contribution      =       1.21031470 Ry
     xc contribution           =      -4.65688073 Ry
     ewald contribution        =     -16.11004915 Ry

     convergence has been achieved in   6 iterations

     Forces acting on atoms (cartesian axes, Ry/au):

     atom    1 type  1   force =     0.00000000    0.00000000   -0.00000000
     atom    2 type  1   force =     0.00000000   -0.00000000   -0.00000000

     Total force =     0.000000     Total SCF correction =     0.000000


     Computing stress (Cartesian axis) and pressure

          total   stress  (Ry/bohr**3)                   (kbar)     P=  -23.32
  -0.00015856   0.00000000   0.00000000        -23.32      0.00      0.00
   0.00000000  -0.00015856   0.00000000          0.00    -23.32      0.00
   0.00000000   0.00000000  -0.00015856          0.00      0.00    -23.32


     init_run     :      0.02s CPU      0.02s WALL (       1 calls)
     electrons    :      0.11s CPU      0.12s WALL (       1 calls)
     forces       :      0.00s CPU      0.00s WALL (       1 calls)
     stress       :      0.01s CPU      0.01s WALL (       1 calls)

     Called by init_run:
     wfcinit      :      0.01s CPU      0.01s WALL (       1 calls)
     potinit      :      0.00s CPU      0.00s WALL (       1 calls)
     hinit0       :      0.01s CPU      0.01s WALL (       1 calls)

     Called by electrons:
     c_bands      :      0.09s CPU      0.09s WALL (       7 calls)
     sum_band     :      0.02s CPU      0.02s WALL (       7 calls)
     v_of_rho     :      0.00s CPU      0.00s WALL (       7 calls)
     mix_rho      :      0.00s CPU      0.00s WALL (       7 calls)

     Called by c_bands:
     init_us_2    :      0.01s CPU      0.01s WALL (     136 calls)
     cegterg      :      0.08s CPU      0.08s WALL (      56 calls)

     Called by sum_band:

     Called by *egterg:
     h_psi        :      0.06s CPU      0.07s WALL (     185 calls)
     g_psi        :      0.00s CPU      0.00s WALL (     121 calls)
     cdiaghg      :      0.01s CPU      0.01s WALL (     169 calls)

     Called by h_psi:
     h_psi:pot    :      0.06s CPU      0.07s WALL (     185 calls)
     h_psi:calbec :      0.00s CPU      0.00s WALL (     185 calls)
     vloc_psi     :      0.05s CPU      0.06s WALL (     185 calls)
     add_vuspsi   :      0.00s CPU      0.00s WALL (     185 calls)

     General routines
     calbec       :      0.00s CPU      0.00s WALL (     225 calls)
     fft          :      0.00s CPU      0.00s WALL (      26 calls)
     ffts         :      0.00s CPU      0.00s WALL (       7 calls)
     fftw         :      0.04s CPU      0.05s WALL (    1584 calls)

     Parallel routines

     PWSCF        :      0.17s CPU      0.19s WALL


   This run was terminated on:   2: 2: 5   7Oct2020            

=------------------------------------------------------------------------------=
   JOB DONE.
=------------------------------------------------------------------------------=
