
     Program PWSCF v.6.4.1 starts on  7Oct2020 at  1:42:35 

     This program is part of the open-source Quantum ESPRESSO suite
     for quantum simulation of materials; please cite
         "P. Giannozzi et al., J. Phys.:Condens. Matter 21 395502 (2009);
         "P. Giannozzi et al., J. Phys.:Condens. Matter 29 465901 (2017);
          URL http://www.quantum-espresso.org", 
     in publications or presentations arising from this work. More details at
     http://www.quantum-espresso.org/quote

     Parallel version (MPI), running on     1 processors

     MPI processes distributed on     1 nodes
     Waiting for input...
     Reading input from standard input
Warning: card &IONS ignored
Warning: card / ignored
Warning: card &CELL ignored
Warning: card / ignored

     Current dimensions of program PWSCF are:
     Max number of different atomic species (ntypx) = 10
     Max number of k-points (npk) =  40000
     Max angular momentum in pseudopotentials (lmaxx) =  3

     Subspace diagonalization in iterative solution of the eigenvalue problem:
     a serial algorithm will be used

     Message from routine setup:
     DEPRECATED: symmetry with ibrav=0, use correct ibrav instead

     G-vector sticks info
     --------------------
     sticks:   dense  smooth     PW     G-vecs:    dense   smooth      PW
     Sum         121     121     55                  893      893     229



     bravais-lattice index     =            0
     lattice parameter (alat)  =       6.6812  a.u.
     unit-cell volume          =     210.8855 (a.u.)^3
     number of atoms/cell      =            2
     number of atomic types    =            1
     number of electrons       =         8.00
     number of Kohn-Sham states=            4
     kinetic-energy cutoff     =      10.0000  Ry
     charge density cutoff     =      40.0000  Ry
     convergence threshold     =      1.0E-07
     mixing beta               =       0.5000
     number of iterations used =            8  plain     mixing
     Exchange-correlation      = SLA PZ NOGX NOGC ( 1  1  0  0 0 0)

     celldm(1)=   6.681191  celldm(2)=   0.000000  celldm(3)=   0.000000
     celldm(4)=   0.000000  celldm(5)=   0.000000  celldm(6)=   0.000000

     crystal axes: (cart. coord. in units of alat)
               a(1) = (   0.000000   0.707107   0.707107 )  
               a(2) = (   0.707107   0.000000   0.707107 )  
               a(3) = (   0.707107   0.707107   0.000000 )  

     reciprocal axes: (cart. coord. in units 2 pi/alat)
               b(1) = ( -0.707107  0.707107  0.707107 )  
               b(2) = (  0.707107 -0.707107  0.707107 )  
               b(3) = (  0.707107  0.707107 -0.707107 )  


     PseudoPot. # 1 for Ge read from file:
     /home/modeler/qe_pseudo/Ge.pz-bhs.UPF
     MD5 check sum: 4f8fee77de72fb640d24dcbf01bda005
     Pseudo is Norm-conserving, Zval =  4.0
     Generated by new atomic code, or converted to UPF format
     Using radial grid of  291 points,  2 beta functions with: 
                l(1) =   0
                l(2) =   1

     atomic species   valence    mass     pseudopotential
        Ge             4.00    72.63000     Ge( 1.00)

      4 Sym. Ops. (no inversion) found



   Cartesian axes

     site n.     atom                  positions (alat units)
         1           Ge  tau(   1) = (   0.0000000   0.0000000   0.0707107  )
         2           Ge  tau(   2) = (   0.3535534   0.3535534   0.3535534  )

     number of k points=    64
                       cart. coord. in units 2pi/alat
        k(    1) = (   0.0000000   0.0000000   0.0000000), wk =   0.0058309
        k(    2) = (   0.1010153   0.1010153  -0.1010153), wk =   0.0233236
        k(    3) = (   0.2020305   0.2020305  -0.2020305), wk =   0.0233236
        k(    4) = (   0.3030458   0.3030458  -0.3030458), wk =   0.0233236
        k(    5) = (   0.2020305   0.0000000   0.0000000), wk =   0.0233236
        k(    6) = (   0.3030458   0.1010153  -0.1010153), wk =   0.0466472
        k(    7) = (   0.4040610   0.2020305  -0.2020305), wk =   0.0466472
        k(    8) = (  -0.2020305  -0.4040610   0.4040610), wk =   0.0466472
        k(    9) = (  -0.1010153  -0.3030458   0.3030458), wk =   0.0466472
        k(   10) = (  -0.0000000  -0.2020305   0.2020305), wk =   0.0466472
        k(   11) = (   0.4040610   0.0000000   0.0000000), wk =   0.0233236
        k(   12) = (   0.5050763   0.1010153  -0.1010153), wk =   0.0466472
        k(   13) = (  -0.1010153  -0.5050763   0.5050763), wk =   0.0466472
        k(   14) = (   0.0000000  -0.4040610   0.4040610), wk =   0.0466472
        k(   15) = (   0.6060915   0.0000000   0.0000000), wk =   0.0233236
        k(   16) = (   0.0000000  -0.6060915   0.6060915), wk =   0.0466472
        k(   17) = (   0.4040610   0.2020305   0.0000000), wk =   0.0233236
        k(   18) = (  -0.2020305  -0.4040610   0.6060915), wk =   0.0466472
        k(   19) = (  -0.1010153  -0.5050763   0.7071068), wk =   0.0233236
        k(   20) = (   0.0000000  -0.4040610   0.6060915), wk =   0.0466472
        k(   21) = (   0.1010153  -0.1010153  -0.1010153), wk =   0.0233236
        k(   22) = (   0.2020305  -0.2020305  -0.2020305), wk =   0.0233236
        k(   23) = (   0.3030458  -0.3030458  -0.3030458), wk =   0.0233236
        k(   24) = (   0.0000000   0.0000000   0.2020305), wk =   0.0116618
        k(   25) = (   0.1010153  -0.3030458  -0.1010153), wk =   0.0466472
        k(   26) = (  -0.1010153  -0.1010153   0.3030458), wk =   0.0233236
        k(   27) = (   0.1010153  -0.1010153  -0.3030458), wk =   0.0233236
        k(   28) = (   0.2020305  -0.4040610  -0.2020305), wk =   0.0466472
        k(   29) = (  -0.2020305  -0.2020305   0.4040610), wk =   0.0233236
        k(   30) = (   0.2020305  -0.2020305  -0.4040610), wk =   0.0233236
        k(   31) = (  -0.4040610   0.2020305   0.4040610), wk =   0.0466472
        k(   32) = (   0.4040610   0.4040610  -0.2020305), wk =   0.0233236
        k(   33) = (  -0.4040610   0.4040610   0.2020305), wk =   0.0233236
        k(   34) = (  -0.3030458   0.1010153   0.3030458), wk =   0.0466472
        k(   35) = (   0.3030458   0.3030458  -0.1010153), wk =   0.0233236
        k(   36) = (  -0.3030458   0.3030458   0.1010153), wk =   0.0233236
        k(   37) = (   0.2020305   0.2020305  -0.0000000), wk =   0.0116618
        k(   38) = (  -0.2020305   0.2020305   0.0000000), wk =   0.0116618
        k(   39) = (   0.0000000   0.0000000   0.4040610), wk =   0.0116618
        k(   40) = (   0.1010153  -0.5050763  -0.1010153), wk =   0.0466472
        k(   41) = (  -0.1010153  -0.1010153   0.5050763), wk =   0.0233236
        k(   42) = (   0.1010153  -0.1010153  -0.5050763), wk =   0.0233236
        k(   43) = (  -0.5050763   0.1010153   0.5050763), wk =   0.0466472
        k(   44) = (   0.5050763   0.5050763  -0.1010153), wk =   0.0233236
        k(   45) = (  -0.5050763   0.5050763   0.1010153), wk =   0.0233236
        k(   46) = (   0.4040610   0.4040610   0.0000000), wk =   0.0116618
        k(   47) = (  -0.4040610   0.4040610   0.0000000), wk =   0.0116618
        k(   48) = (   0.0000000   0.0000000   0.6060915), wk =   0.0116618
        k(   49) = (   0.6060915   0.6060915   0.0000000), wk =   0.0116618
        k(   50) = (  -0.6060915   0.6060915   0.0000000), wk =   0.0116618
        k(   51) = (   0.2020305  -0.4040610   0.0000000), wk =   0.0233236
        k(   52) = (   0.0000000  -0.2020305   0.4040610), wk =   0.0466472
        k(   53) = (  -0.4040610   0.0000000   0.2020305), wk =   0.0466472
        k(   54) = (  -0.4040610   0.2020305   0.6060915), wk =   0.0466472
        k(   55) = (   0.6060915   0.4040610  -0.2020305), wk =   0.0466472
        k(   56) = (  -0.6060915   0.4040610   0.2020305), wk =   0.0466472
        k(   57) = (   0.2020305   0.6060915  -0.4040610), wk =   0.0466472
        k(   58) = (   0.2020305  -0.6060915   0.4040610), wk =   0.0466472
        k(   59) = (  -0.5050763   0.1010153   0.7071068), wk =   0.0233236
        k(   60) = (   0.7071068   0.5050763  -0.1010153), wk =   0.0466472
        k(   61) = (   0.1010153   0.7071068  -0.5050763), wk =   0.0466472
        k(   62) = (   0.6060915   0.4040610  -0.0000000), wk =   0.0233236
        k(   63) = (  -0.6060915   0.4040610   0.0000000), wk =   0.0233236
        k(   64) = (   0.0000000   0.6060915  -0.4040610), wk =   0.0466472

     Dense  grid:      893 G-vectors     FFT dimensions: (  15,  15,  15)

     Estimated max dynamical RAM per process >       1.18 MB

     Initial potential from superposition of free atoms

     starting charge    6.99990, renormalised to    8.00000
     Starting wfcs are    8 randomized atomic wfcs

     total cpu time spent up to now is        0.1 secs

     Self-consistent Calculation

     iteration #  1     ecut=    10.00 Ry     beta= 0.50
     Davidson diagonalization with overlap
     ethr =  1.00E-02,  avg # of iterations =  1.6

     Threshold (ethr) on eigenvalues was too large:
     Diagonalizing with lowered threshold

     Davidson diagonalization with overlap
     ethr =  2.99E-04,  avg # of iterations =  2.8

     total cpu time spent up to now is        0.2 secs

     total energy              =     -15.80908210 Ry
     Harris-Foulkes estimate   =     -15.81183131 Ry
     estimated scf accuracy    <       0.02663157 Ry

     iteration #  2     ecut=    10.00 Ry     beta= 0.50
     Davidson diagonalization with overlap
     ethr =  3.33E-04,  avg # of iterations =  1.0

     total cpu time spent up to now is        0.2 secs

     total energy              =     -15.80853471 Ry
     Harris-Foulkes estimate   =     -15.80929011 Ry
     estimated scf accuracy    <       0.00600263 Ry

     iteration #  3     ecut=    10.00 Ry     beta= 0.50
     Davidson diagonalization with overlap
     ethr =  7.50E-05,  avg # of iterations =  1.0

     total cpu time spent up to now is        0.3 secs

     total energy              =     -15.80864429 Ry
     Harris-Foulkes estimate   =     -15.80866145 Ry
     estimated scf accuracy    <       0.00003585 Ry

     iteration #  4     ecut=    10.00 Ry     beta= 0.50
     Davidson diagonalization with overlap
     ethr =  4.48E-07,  avg # of iterations =  3.5

     total cpu time spent up to now is        0.4 secs

     total energy              =     -15.80868531 Ry
     Harris-Foulkes estimate   =     -15.80868561 Ry
     estimated scf accuracy    <       0.00000066 Ry

     iteration #  5     ecut=    10.00 Ry     beta= 0.50
     Davidson diagonalization with overlap
     ethr =  8.27E-09,  avg # of iterations =  2.3

     total cpu time spent up to now is        0.4 secs

     End of self-consistent calculation

          k = 0.0000 0.0000 0.0000 (   113 PWs)   bands (ev):

    -5.7884   8.4548  10.2315  11.5156

          k = 0.1010 0.1010-0.1010 (   116 PWs)   bands (ev):

    -5.4782   6.4260   9.1394  10.2449

          k = 0.2020 0.2020-0.2020 (   114 PWs)   bands (ev):

    -4.5392   2.9726   8.1287   9.3373

          k = 0.3030 0.3030-0.3030 (   114 PWs)   bands (ev):

    -3.0605   0.0636   7.6101   8.9113

          k = 0.2020 0.0000 0.0000 (   117 PWs)   bands (ev):

    -5.3859   6.8661   8.4598   9.2190

          k = 0.3030 0.1010-0.1010 (   114 PWs)   bands (ev):

    -4.6431   3.9609   7.4116   8.4872

          k = 0.4041 0.2020-0.2020 (   112 PWs)   bands (ev):

    -3.2900   0.9908   6.6932   7.6191

          k =-0.2020-0.4041 0.4041 (   116 PWs)   bands (ev):

    -2.3990  -0.3058   6.1679   7.6796

          k =-0.1010-0.3030 0.3030 (   114 PWs)   bands (ev):

    -3.8466   2.1388   6.0980   8.4526

          k =-0.0000-0.2020 0.2020 (   117 PWs)   bands (ev):

    -4.9831   5.4038   6.6889   9.5877

          k = 0.4041 0.0000 0.0000 (   117 PWs)   bands (ev):

    -4.1491   3.9111   6.6871   6.9741

          k = 0.5051 0.1010-0.1010 (   113 PWs)   bands (ev):

    -2.9611   1.5962   5.6260   6.3924

          k =-0.1010-0.5051 0.5051 (   110 PWs)   bands (ev):

    -1.5390  -0.1544   4.1630   6.5844

          k = 0.0000-0.4041 0.4041 (   111 PWs)   bands (ev):

    -2.7100   1.5519   3.6349   7.4625

          k = 0.6061 0.0000 0.0000 (   116 PWs)   bands (ev):

    -2.0849   0.7050   5.7788   5.8480

          k = 0.0000-0.6061 0.6061 (   110 PWs)   bands (ev):

    -0.9290  -0.4309   4.4351   5.8985

          k = 0.4041 0.2020 0.0000 (   114 PWs)   bands (ev):

    -3.6637   2.2713   5.3729   7.9339

          k =-0.2020-0.4041 0.6061 (   114 PWs)   bands (ev):

    -2.1431   0.2274   4.3931   6.8643

          k =-0.1010-0.5051 0.7071 (   109 PWs)   bands (ev):

    -1.5362   0.1303   4.5107   5.4492

          k = 0.0000-0.4041 0.6061 (   110 PWs)   bands (ev):

    -1.3759   0.4118   3.4479   5.2609

          k = 0.1010-0.1010-0.1010 (   116 PWs)   bands (ev):

    -5.4964   7.5422   8.0895  10.0974

          k = 0.2020-0.2020-0.2020 (   114 PWs)   bands (ev):

    -4.6329   3.8870   7.4810   9.3268

          k = 0.3030-0.3030-0.3030 (   114 PWs)   bands (ev):

    -3.4920   1.2425   7.1077   8.9657

          k = 0.0000 0.0000 0.2020 (   117 PWs)   bands (ev):

    -5.3852   7.4066   8.0042   8.8935

          k = 0.1010-0.3030-0.1010 (   114 PWs)   bands (ev):

    -4.7065   5.1668   6.5350   8.0322

          k =-0.1010-0.1010 0.3030 (   114 PWs)   bands (ev):

    -4.6631   4.4118   7.1399   8.0148

          k = 0.1010-0.1010-0.3030 (   114 PWs)   bands (ev):

    -4.6863   4.9264   6.7333   8.1227

          k = 0.2020-0.4041-0.2020 (   112 PWs)   bands (ev):

    -3.5741   2.1873   5.7611   7.7126

          k =-0.2020-0.2020 0.4041 (   112 PWs)   bands (ev):

    -3.3390   1.2247   6.1877   7.7838

          k = 0.2020-0.2020-0.4041 (   112 PWs)   bands (ev):

    -3.5516   2.0396   6.4709   7.1148

          k =-0.4041 0.2020 0.4041 (   116 PWs)   bands (ev):

    -2.9753   1.0550   5.3087   7.9867

          k = 0.4041 0.4041-0.2020 (   116 PWs)   bands (ev):

    -2.3330  -0.3753   5.6711   8.2048

          k =-0.4041 0.4041 0.2020 (   116 PWs)   bands (ev):

    -3.0172   1.0925   6.4117   6.7029

          k =-0.3030 0.1010 0.3030 (   114 PWs)   bands (ev):

    -3.9536   2.9470   5.3479   8.7389

          k = 0.3030 0.3030-0.1010 (   114 PWs)   bands (ev):

    -3.7709   1.8110   5.8436   9.2033

          k =-0.3030 0.3030 0.1010 (   114 PWs)   bands (ev):

    -4.0137   3.1675   6.2281   7.3307

          k = 0.2020 0.2020-0.0000 (   117 PWs)   bands (ev):

    -4.9425   4.5221   7.1045  10.5040

          k =-0.2020 0.2020 0.0000 (   117 PWs)   bands (ev):

    -5.0228   6.5852   6.6671   8.0218

          k = 0.0000 0.0000 0.4041 (   117 PWs)   bands (ev):

    -4.1593   4.4764   5.9400   6.9839

          k = 0.1010-0.5051-0.1010 (   113 PWs)   bands (ev):

    -3.1243   2.5235   4.7152   6.4393

          k =-0.1010-0.1010 0.5051 (   113 PWs)   bands (ev):

    -3.0473   2.2752   4.5872   6.5978

          k = 0.1010-0.1010-0.5051 (   113 PWs)   bands (ev):

    -3.1181   2.4704   5.5941   5.6065

          k =-0.5051 0.1010 0.5051 (   110 PWs)   bands (ev):

    -2.1036   1.1545   3.3576   6.6739

          k = 0.5051 0.5051-0.1010 (   110 PWs)   bands (ev):

    -1.5411   0.0276   3.5054   6.9083

          k =-0.5051 0.5051 0.1010 (   110 PWs)   bands (ev):

    -2.2391   1.3149   4.1638   5.8027

          k = 0.4041 0.4041 0.0000 (   111 PWs)   bands (ev):

    -2.3947   0.6423   3.7409   7.8751

          k =-0.4041 0.4041 0.0000 (   111 PWs)   bands (ev):

    -2.9548   2.5753   3.7085   6.5038

          k = 0.0000 0.0000 0.6061 (   116 PWs)   bands (ev):

    -2.2258   1.1866   5.1075   6.0067

          k = 0.6061 0.6061 0.0000 (   110 PWs)   bands (ev):

    -1.2747   0.1935   3.7578   6.1153

          k =-0.6061 0.6061 0.0000 (   110 PWs)   bands (ev):

    -1.5813   0.5681   4.7438   5.1853

          k = 0.2020-0.4041 0.0000 (   114 PWs)   bands (ev):

    -3.8675   4.1284   5.0562   6.2345

          k = 0.0000-0.2020 0.4041 (   114 PWs)   bands (ev):

    -3.7821   3.2836   4.9352   7.2402

          k =-0.4041 0.0000 0.2020 (   114 PWs)   bands (ev):

    -3.7702   3.0251   5.1261   7.3952

          k =-0.4041 0.2020 0.6061 (   114 PWs)   bands (ev):

    -2.7329   1.8580   4.4553   5.6932

          k = 0.6061 0.4041-0.2020 (   114 PWs)   bands (ev):

    -2.3394   0.6958   4.3045   6.6070

          k =-0.6061 0.4041 0.2020 (   114 PWs)   bands (ev):

    -2.6497   1.5777   4.2570   6.1458

          k = 0.2020 0.6061-0.4041 (   114 PWs)   bands (ev):

    -2.3039   0.4775   5.0127   6.1085

          k = 0.2020-0.6061 0.4041 (   114 PWs)   bands (ev):

    -2.6097   1.5821   3.6973   6.7605

          k =-0.5051 0.1010 0.7071 (   109 PWs)   bands (ev):

    -2.0340   1.2607   4.5303   4.7056

          k = 0.7071 0.5051-0.1010 (   109 PWs)   bands (ev):

    -1.9483   1.1098   4.0539   5.2385

          k = 0.1010 0.7071-0.5051 (   109 PWs)   bands (ev):

    -1.8011   0.6295   4.5099   5.1900

          k = 0.6061 0.4041-0.0000 (   110 PWs)   bands (ev):

    -0.6320  -0.5146   3.2123   5.6385

          k =-0.6061 0.4041 0.0000 (   110 PWs)   bands (ev):

    -1.7556   1.1839   3.8133   4.4984

          k = 0.0000 0.6061-0.4041 (   110 PWs)   bands (ev):

    -1.2373   0.1303   3.5874   5.2951

     highest occupied level (ev):    11.5156

!    total energy              =     -15.80868542 Ry
     Harris-Foulkes estimate   =     -15.80868543 Ry
     estimated scf accuracy    <       0.00000005 Ry

     The total energy is the sum of the following terms:

     one-electron contribution =       6.56066019 Ry
     hartree contribution      =       0.85250574 Ry
     xc contribution           =      -5.04704202 Ry
     ewald contribution        =     -18.17480933 Ry

     convergence has been achieved in   5 iterations

     Forces acting on atoms (cartesian axes, Ry/au):

     atom    1 type  1   force =     0.00000000    0.00000000   -0.21127996
     atom    2 type  1   force =     0.00000000    0.00000000    0.21127996

     Total force =     0.298795     Total SCF correction =     0.000058


     Computing stress (Cartesian axis) and pressure

          total   stress  (Ry/bohr**3)                   (kbar)     P=  529.51
   0.00387043   0.00228897   0.00000000        569.36    336.72      0.00
   0.00228897   0.00387043  -0.00000000        336.72    569.36     -0.00
  -0.00000000   0.00000000   0.00305765         -0.00      0.00    449.80


     init_run     :      0.04s CPU      0.05s WALL (       1 calls)
     electrons    :      0.33s CPU      0.35s WALL (       1 calls)
     forces       :      0.00s CPU      0.00s WALL (       1 calls)
     stress       :      0.02s CPU      0.02s WALL (       1 calls)

     Called by init_run:
     wfcinit      :      0.03s CPU      0.04s WALL (       1 calls)
     potinit      :      0.00s CPU      0.00s WALL (       1 calls)
     hinit0       :      0.01s CPU      0.01s WALL (       1 calls)

     Called by electrons:
     c_bands      :      0.28s CPU      0.30s WALL (       6 calls)
     sum_band     :      0.04s CPU      0.04s WALL (       6 calls)
     v_of_rho     :      0.00s CPU      0.00s WALL (       6 calls)
     mix_rho      :      0.00s CPU      0.00s WALL (       6 calls)

     Called by c_bands:
     init_us_2    :      0.02s CPU      0.02s WALL (     960 calls)
     cegterg      :      0.26s CPU      0.28s WALL (     384 calls)

     Called by sum_band:

     Called by *egterg:
     h_psi        :      0.20s CPU      0.22s WALL (    1228 calls)
     g_psi        :      0.00s CPU      0.00s WALL (     780 calls)
     cdiaghg      :      0.04s CPU      0.04s WALL (    1100 calls)

     Called by h_psi:
     h_psi:pot    :      0.20s CPU      0.22s WALL (    1228 calls)
     h_psi:calbec :      0.01s CPU      0.01s WALL (    1228 calls)
     vloc_psi     :      0.17s CPU      0.19s WALL (    1228 calls)
     add_vuspsi   :      0.01s CPU      0.01s WALL (    1228 calls)

     General routines
     calbec       :      0.01s CPU      0.01s WALL (    1548 calls)
     fft          :      0.00s CPU      0.00s WALL (      23 calls)
     ffts         :      0.00s CPU      0.00s WALL (       6 calls)
     fftw         :      0.14s CPU      0.16s WALL (   10510 calls)

     Parallel routines

     PWSCF        :      0.43s CPU      0.46s WALL


   This run was terminated on:   1:42:35   7Oct2020            

=------------------------------------------------------------------------------=
   JOB DONE.
=------------------------------------------------------------------------------=
