
     Program PWSCF v.6.4.1 starts on  1Oct2020 at 21:24: 9 

     This program is part of the open-source Quantum ESPRESSO suite
     for quantum simulation of materials; please cite
         "P. Giannozzi et al., J. Phys.:Condens. Matter 21 395502 (2009);
         "P. Giannozzi et al., J. Phys.:Condens. Matter 29 465901 (2017);
          URL http://www.quantum-espresso.org", 
     in publications or presentations arising from this work. More details at
     http://www.quantum-espresso.org/quote

     Parallel version (MPI), running on     1 processors

     MPI processes distributed on     1 nodes
     Waiting for input...
     Reading input from standard input
Warning: card &IONS ignored
Warning: card / ignored
Warning: card &CELL ignored
Warning: card / ignored

     Current dimensions of program PWSCF are:
     Max number of different atomic species (ntypx) = 10
     Max number of k-points (npk) =  40000
     Max angular momentum in pseudopotentials (lmaxx) =  3

     Subspace diagonalization in iterative solution of the eigenvalue problem:
     a serial algorithm will be used

     Message from routine setup:
     DEPRECATED: symmetry with ibrav=0, use correct ibrav instead

     G-vector sticks info
     --------------------
     sticks:   dense  smooth     PW     G-vecs:    dense   smooth      PW
     Sum         979     979    295                20275    20275    3287



     bravais-lattice index     =            0
     lattice parameter (alat)  =       6.6812  a.u.
     unit-cell volume          =     210.8855 (a.u.)^3
     number of atoms/cell      =            2
     number of atomic types    =            1
     number of electrons       =         8.00
     number of Kohn-Sham states=            4
     kinetic-energy cutoff     =      80.0000  Ry
     charge density cutoff     =     320.0000  Ry
     convergence threshold     =      1.0E-07
     mixing beta               =       0.5000
     number of iterations used =            8  plain     mixing
     Exchange-correlation      = SLA PZ NOGX NOGC ( 1  1  0  0 0 0)

     celldm(1)=   6.681191  celldm(2)=   0.000000  celldm(3)=   0.000000
     celldm(4)=   0.000000  celldm(5)=   0.000000  celldm(6)=   0.000000

     crystal axes: (cart. coord. in units of alat)
               a(1) = (   0.000000   0.707107   0.707107 )  
               a(2) = (   0.707107   0.000000   0.707107 )  
               a(3) = (   0.707107   0.707107   0.000000 )  

     reciprocal axes: (cart. coord. in units 2 pi/alat)
               b(1) = ( -0.707107  0.707107  0.707107 )  
               b(2) = (  0.707107 -0.707107  0.707107 )  
               b(3) = (  0.707107  0.707107 -0.707107 )  


     PseudoPot. # 1 for Ge read from file:
     /home/modeler/qe_pseudo/Ge.pz-bhs.UPF
     MD5 check sum: 4f8fee77de72fb640d24dcbf01bda005
     Pseudo is Norm-conserving, Zval =  4.0
     Generated by new atomic code, or converted to UPF format
     Using radial grid of  291 points,  2 beta functions with: 
                l(1) =   0
                l(2) =   1

     atomic species   valence    mass     pseudopotential
        Ge             4.00    72.63000     Ge( 1.00)

     48 Sym. Ops., with inversion, found (24 have fractional translation)



   Cartesian axes

     site n.     atom                  positions (alat units)
         1           Ge  tau(   1) = (   0.0000000   0.0000000   0.0000000  )
         2           Ge  tau(   2) = (   0.3535534   0.3535534   0.3535534  )

     number of k points=     8
                       cart. coord. in units 2pi/alat
        k(    1) = (   0.0000000   0.0000000   0.0000000), wk =   0.0312500
        k(    2) = (   0.1767767   0.1767767  -0.1767767), wk =   0.2500000
        k(    3) = (  -0.3535534  -0.3535534   0.3535534), wk =   0.1250000
        k(    4) = (   0.3535534   0.0000000   0.0000000), wk =   0.1875000
        k(    5) = (  -0.1767767  -0.5303301   0.5303301), wk =   0.7500000
        k(    6) = (   0.0000000  -0.3535534   0.3535534), wk =   0.3750000
        k(    7) = (  -0.7071068   0.0000000   0.0000000), wk =   0.0937500
        k(    8) = (  -0.7071068   0.3535534   0.0000000), wk =   0.1875000

     Dense  grid:    20275 G-vectors     FFT dimensions: (  40,  40,  40)

     Estimated max dynamical RAM per process >      15.92 MB

     Initial potential from superposition of free atoms

     starting charge    6.99990, renormalised to    8.00000
     Starting wfcs are    8 randomized atomic wfcs

     total cpu time spent up to now is        0.3 secs

     Self-consistent Calculation

     iteration #  1     ecut=    80.00 Ry     beta= 0.50
     Davidson diagonalization with overlap
     ethr =  1.00E-02,  avg # of iterations =  2.0

     Threshold (ethr) on eigenvalues was too large:
     Diagonalizing with lowered threshold

     Davidson diagonalization with overlap
     ethr =  3.26E-04,  avg # of iterations =  2.8

     total cpu time spent up to now is        0.8 secs

     total energy              =     -15.87678937 Ry
     Harris-Foulkes estimate   =     -15.88096368 Ry
     estimated scf accuracy    <       0.02952699 Ry

     iteration #  2     ecut=    80.00 Ry     beta= 0.50
     Davidson diagonalization with overlap
     ethr =  3.69E-04,  avg # of iterations =  1.0

     total cpu time spent up to now is        1.0 secs

     total energy              =     -15.87599335 Ry
     Harris-Foulkes estimate   =     -15.87705315 Ry
     estimated scf accuracy    <       0.00653049 Ry

     iteration #  3     ecut=    80.00 Ry     beta= 0.50
     Davidson diagonalization with overlap
     ethr =  8.16E-05,  avg # of iterations =  1.0

     total cpu time spent up to now is        1.2 secs

     total energy              =     -15.87618226 Ry
     Harris-Foulkes estimate   =     -15.87620674 Ry
     estimated scf accuracy    <       0.00004930 Ry

     iteration #  4     ecut=    80.00 Ry     beta= 0.50
     Davidson diagonalization with overlap
     ethr =  6.16E-07,  avg # of iterations =  3.0

     total cpu time spent up to now is        1.6 secs

     total energy              =     -15.87622404 Ry
     Harris-Foulkes estimate   =     -15.87622409 Ry
     estimated scf accuracy    <       0.00000094 Ry

     iteration #  5     ecut=    80.00 Ry     beta= 0.50
     Davidson diagonalization with overlap
     ethr =  1.18E-08,  avg # of iterations =  2.1

     total cpu time spent up to now is        1.9 secs

     End of self-consistent calculation

          k = 0.0000 0.0000 0.0000 (  2637 PWs)   bands (ev):

    -5.7136   9.9758   9.9758   9.9758

          k = 0.1768 0.1768-0.1768 (  2563 PWs)   bands (ev):

    -4.7743   4.3428   8.7032   8.7032

          k =-0.3536-0.3536 0.3536 (  2536 PWs)   bands (ev):

    -2.8134   0.1257   8.0317   8.0317

          k = 0.3536 0.0000 0.0000 (  2557 PWs)   bands (ev):

    -4.4445   5.2319   6.9467   6.9467

          k =-0.1768-0.5303 0.5303 (  2546 PWs)   bands (ev):

    -2.3968   1.1531   4.6038   6.4830

          k = 0.0000-0.3536 0.3536 (  2548 PWs)   bands (ev):

    -3.2517   2.4087   4.2224   7.8206

          k =-0.7071 0.0000 0.0000 (  2498 PWs)   bands (ev):

    -0.6163  -0.6163   5.5254   5.5254

          k =-0.7071 0.3536 0.0000 (  2520 PWs)   bands (ev):

    -0.3480  -0.3480   4.0248   4.0248

     highest occupied level (ev):     9.9758

!    total energy              =     -15.87622413 Ry
     Harris-Foulkes estimate   =     -15.87622413 Ry
     estimated scf accuracy    <       0.00000003 Ry

     The total energy is the sum of the following terms:

     one-electron contribution =       6.54476605 Ry
     hartree contribution      =       0.88712801 Ry
     xc contribution           =      -5.06446538 Ry
     ewald contribution        =     -18.24365281 Ry

     convergence has been achieved in   5 iterations

     Forces acting on atoms (cartesian axes, Ry/au):

     atom    1 type  1   force =     0.00000000    0.00000000   -0.00000000
     atom    2 type  1   force =     0.00000000    0.00000000   -0.00000000

     Total force =     0.000000     Total SCF correction =     0.000000


     Computing stress (Cartesian axis) and pressure

          total   stress  (Ry/bohr**3)                   (kbar)     P=  545.34
   0.00370718   0.00000000   0.00000000        545.34      0.00      0.00
   0.00000000   0.00370718   0.00000000          0.00    545.34      0.00
   0.00000000   0.00000000   0.00370718          0.00      0.00    545.34


     init_run     :      0.22s CPU      0.22s WALL (       1 calls)
     electrons    :      1.58s CPU      1.60s WALL (       1 calls)
     forces       :      0.02s CPU      0.02s WALL (       1 calls)
     stress       :      0.10s CPU      0.10s WALL (       1 calls)

     Called by init_run:
     wfcinit      :      0.16s CPU      0.16s WALL (       1 calls)
     potinit      :      0.01s CPU      0.01s WALL (       1 calls)
     hinit0       :      0.03s CPU      0.03s WALL (       1 calls)

     Called by electrons:
     c_bands      :      1.18s CPU      1.20s WALL (       6 calls)
     sum_band     :      0.33s CPU      0.33s WALL (       6 calls)
     v_of_rho     :      0.04s CPU      0.04s WALL (       6 calls)
     mix_rho      :      0.02s CPU      0.02s WALL (       6 calls)

     Called by c_bands:
     init_us_2    :      0.05s CPU      0.05s WALL (     120 calls)
     cegterg      :      1.15s CPU      1.16s WALL (      48 calls)

     Called by sum_band:

     Called by *egterg:
     h_psi        :      1.19s CPU      1.21s WALL (     151 calls)
     g_psi        :      0.01s CPU      0.01s WALL (      95 calls)
     cdiaghg      :      0.01s CPU      0.01s WALL (     135 calls)

     Called by h_psi:
     h_psi:pot    :      1.19s CPU      1.21s WALL (     151 calls)
     h_psi:calbec :      0.03s CPU      0.03s WALL (     151 calls)
     vloc_psi     :      1.14s CPU      1.15s WALL (     151 calls)
     add_vuspsi   :      0.02s CPU      0.02s WALL (     151 calls)

     General routines
     calbec       :      0.03s CPU      0.03s WALL (     191 calls)
     fft          :      0.06s CPU      0.06s WALL (      23 calls)
     ffts         :      0.01s CPU      0.01s WALL (       6 calls)
     fftw         :      1.24s CPU      1.26s WALL (    1292 calls)

     Parallel routines

     PWSCF        :      1.93s CPU      1.97s WALL


   This run was terminated on:  21:24:11   1Oct2020            

=------------------------------------------------------------------------------=
   JOB DONE.
=------------------------------------------------------------------------------=
