
     Program PWSCF v.6.4.1 starts on  7Oct2020 at  2: 2:52 

     This program is part of the open-source Quantum ESPRESSO suite
     for quantum simulation of materials; please cite
         "P. Giannozzi et al., J. Phys.:Condens. Matter 21 395502 (2009);
         "P. Giannozzi et al., J. Phys.:Condens. Matter 29 465901 (2017);
          URL http://www.quantum-espresso.org", 
     in publications or presentations arising from this work. More details at
     http://www.quantum-espresso.org/quote

     Parallel version (MPI), running on     1 processors

     MPI processes distributed on     1 nodes
     Waiting for input...
     Reading input from standard input
Warning: card &IONS ignored
Warning: card / ignored
Warning: card &CELL ignored
Warning: card / ignored

     Current dimensions of program PWSCF are:
     Max number of different atomic species (ntypx) = 10
     Max number of k-points (npk) =  40000
     Max angular momentum in pseudopotentials (lmaxx) =  3

     Subspace diagonalization in iterative solution of the eigenvalue problem:
     a serial algorithm will be used

     Message from routine setup:
     DEPRECATED: symmetry with ibrav=0, use correct ibrav instead

     G-vector sticks info
     --------------------
     sticks:   dense  smooth     PW     G-vecs:    dense   smooth      PW
     Sum        1285    1285    367                30155    30155    4645



     bravais-lattice index     =            0
     lattice parameter (alat)  =       7.6014  a.u.
     unit-cell volume          =     310.5743 (a.u.)^3
     number of atoms/cell      =            2
     number of atomic types    =            1
     number of electrons       =         8.00
     number of Kohn-Sham states=            4
     kinetic-energy cutoff     =      80.0000  Ry
     charge density cutoff     =     320.0000  Ry
     convergence threshold     =      1.0E-07
     mixing beta               =       0.5000
     number of iterations used =            8  plain     mixing
     Exchange-correlation      = SLA PZ NOGX NOGC ( 1  1  0  0 0 0)

     celldm(1)=   7.601398  celldm(2)=   0.000000  celldm(3)=   0.000000
     celldm(4)=   0.000000  celldm(5)=   0.000000  celldm(6)=   0.000000

     crystal axes: (cart. coord. in units of alat)
               a(1) = (   0.000000   0.707107   0.707107 )  
               a(2) = (   0.707107   0.000000   0.707107 )  
               a(3) = (   0.707107   0.707107   0.000000 )  

     reciprocal axes: (cart. coord. in units 2 pi/alat)
               b(1) = ( -0.707107  0.707107  0.707107 )  
               b(2) = (  0.707107 -0.707107  0.707107 )  
               b(3) = (  0.707107  0.707107 -0.707107 )  


     PseudoPot. # 1 for Ge read from file:
     /home/modeler/qe_pseudo/Ge.pz-bhs.UPF
     MD5 check sum: 4f8fee77de72fb640d24dcbf01bda005
     Pseudo is Norm-conserving, Zval =  4.0
     Generated by new atomic code, or converted to UPF format
     Using radial grid of  291 points,  2 beta functions with: 
                l(1) =   0
                l(2) =   1

     atomic species   valence    mass     pseudopotential
        Ge             4.00    72.63000     Ge( 1.00)

     24 Sym. Ops. (no inversion) found



   Cartesian axes

     site n.     atom                  positions (alat units)
         1           Ge  tau(   1) = (   0.0000000   0.0000000   0.0000000  )
         2           Ge  tau(   2) = (   0.3535524   0.3535524   0.3535524  )

     number of k points=     8
                       cart. coord. in units 2pi/alat
        k(    1) = (   0.0000000   0.0000000   0.0000000), wk =   0.0312500
        k(    2) = (   0.1767767   0.1767767  -0.1767767), wk =   0.2500000
        k(    3) = (  -0.3535534  -0.3535534   0.3535534), wk =   0.1250000
        k(    4) = (   0.3535534   0.0000000   0.0000000), wk =   0.1875000
        k(    5) = (  -0.1767767  -0.5303301   0.5303301), wk =   0.7500000
        k(    6) = (   0.0000000  -0.3535534   0.3535534), wk =   0.3750000
        k(    7) = (  -0.7071068   0.0000000   0.0000000), wk =   0.0937500
        k(    8) = (  -0.7071068   0.3535534   0.0000000), wk =   0.1875000

     Dense  grid:    30155 G-vectors     FFT dimensions: (  45,  45,  45)

     Estimated max dynamical RAM per process >      23.31 MB

     Initial potential from superposition of free atoms

     starting charge    6.99990, renormalised to    8.00000
     Starting wfcs are    8 randomized atomic wfcs

     total cpu time spent up to now is        0.4 secs

     Self-consistent Calculation

     iteration #  1     ecut=    80.00 Ry     beta= 0.50
     Davidson diagonalization with overlap
     ethr =  1.00E-02,  avg # of iterations =  2.0

     Threshold (ethr) on eigenvalues was too large:
     Diagonalizing with lowered threshold

     Davidson diagonalization with overlap
     ethr =  3.19E-04,  avg # of iterations =  2.4

     total cpu time spent up to now is        1.1 secs

     total energy              =     -15.99559565 Ry
     Harris-Foulkes estimate   =     -15.99906184 Ry
     estimated scf accuracy    <       0.02702065 Ry

     iteration #  2     ecut=    80.00 Ry     beta= 0.50
     Davidson diagonalization with overlap
     ethr =  3.38E-04,  avg # of iterations =  1.0

     total cpu time spent up to now is        1.4 secs

     total energy              =     -15.99464499 Ry
     Harris-Foulkes estimate   =     -15.99573913 Ry
     estimated scf accuracy    <       0.00648521 Ry

     iteration #  3     ecut=    80.00 Ry     beta= 0.50
     Davidson diagonalization with overlap
     ethr =  8.11E-05,  avg # of iterations =  1.0

     total cpu time spent up to now is        1.7 secs

     total energy              =     -15.99472882 Ry
     Harris-Foulkes estimate   =     -15.99473373 Ry
     estimated scf accuracy    <       0.00000934 Ry

     iteration #  4     ecut=    80.00 Ry     beta= 0.50
     Davidson diagonalization with overlap
     ethr =  1.17E-07,  avg # of iterations =  4.9

     total cpu time spent up to now is        2.4 secs

     total energy              =     -15.99475996 Ry
     Harris-Foulkes estimate   =     -15.99476021 Ry
     estimated scf accuracy    <       0.00000079 Ry

     iteration #  5     ecut=    80.00 Ry     beta= 0.50
     Davidson diagonalization with overlap
     ethr =  9.90E-09,  avg # of iterations =  1.9

     total cpu time spent up to now is        2.7 secs

     End of self-consistent calculation

          k = 0.0000 0.0000 0.0000 (  3719 PWs)   bands (ev):

    -7.1756   5.2697   5.2697   5.2697

          k = 0.1768 0.1768-0.1768 (  3744 PWs)   bands (ev):

    -6.4933   0.5848   4.4372   4.4372

          k =-0.3536-0.3536 0.3536 (  3750 PWs)   bands (ev):

    -5.2482  -2.2380   3.9451   3.9452

          k = 0.3536 0.0000 0.0000 (  3727 PWs)   bands (ev):

    -6.2445   0.5539   3.3194   3.3194

          k =-0.1768-0.5303 0.5303 (  3747 PWs)   bands (ev):

    -4.8563  -2.0692   1.6448   2.9742

          k = 0.0000-0.3536 0.3536 (  3759 PWs)   bands (ev):

    -5.4321  -1.2315   1.5088   3.8413

          k =-0.7071 0.0000 0.0000 (  3812 PWs)   bands (ev):

    -3.5353  -3.5353   2.3268   2.3268

          k =-0.7071 0.3536 0.0000 (  3736 PWs)   bands (ev):

    -3.4453  -3.4453   1.4786   1.4786

     highest occupied level (ev):     5.2697

!    total energy              =     -15.99476005 Ry
     Harris-Foulkes estimate   =     -15.99476004 Ry
     estimated scf accuracy    <       0.00000006 Ry

     The total energy is the sum of the following terms:

     one-electron contribution =       3.45790854 Ry
     hartree contribution      =       1.22724963 Ry
     xc contribution           =      -4.64479968 Ry
     ewald contribution        =     -16.03511853 Ry

     convergence has been achieved in   5 iterations

     Forces acting on atoms (cartesian axes, Ry/au):

     atom    1 type  1   force =     0.00000000    0.00000000    0.00000000
     atom    2 type  1   force =    -0.00000000   -0.00000000   -0.00000000

     Total force =     0.000000     Total SCF correction =     0.000000


     Computing stress (Cartesian axis) and pressure

          total   stress  (Ry/bohr**3)                   (kbar)     P=  -25.22
  -0.00017142   0.00000000   0.00000000        -25.22      0.00      0.00
   0.00000000  -0.00017142   0.00000000          0.00    -25.22      0.00
   0.00000000   0.00000000  -0.00017142          0.00      0.00    -25.22


     init_run     :      0.31s CPU      0.32s WALL (       1 calls)
     electrons    :      2.34s CPU      2.35s WALL (       1 calls)
     forces       :      0.02s CPU      0.03s WALL (       1 calls)
     stress       :      0.15s CPU      0.15s WALL (       1 calls)

     Called by init_run:
     wfcinit      :      0.25s CPU      0.25s WALL (       1 calls)
     potinit      :      0.02s CPU      0.02s WALL (       1 calls)
     hinit0       :      0.03s CPU      0.03s WALL (       1 calls)

     Called by electrons:
     c_bands      :      1.88s CPU      1.89s WALL (       6 calls)
     sum_band     :      0.39s CPU      0.39s WALL (       6 calls)
     v_of_rho     :      0.05s CPU      0.05s WALL (       6 calls)
     mix_rho      :      0.03s CPU      0.03s WALL (       6 calls)

     Called by c_bands:
     init_us_2    :      0.07s CPU      0.08s WALL (     120 calls)
     cegterg      :      1.82s CPU      1.83s WALL (      48 calls)

     Called by sum_band:

     Called by *egterg:
     h_psi        :      1.89s CPU      1.90s WALL (     161 calls)
     g_psi        :      0.01s CPU      0.01s WALL (     105 calls)
     cdiaghg      :      0.01s CPU      0.01s WALL (     145 calls)

     Called by h_psi:
     h_psi:pot    :      1.88s CPU      1.89s WALL (     161 calls)
     h_psi:calbec :      0.04s CPU      0.04s WALL (     161 calls)
     vloc_psi     :      1.80s CPU      1.81s WALL (     161 calls)
     add_vuspsi   :      0.04s CPU      0.04s WALL (     161 calls)

     General routines
     calbec       :      0.05s CPU      0.05s WALL (     201 calls)
     fft          :      0.06s CPU      0.06s WALL (      23 calls)
     ffts         :      0.01s CPU      0.01s WALL (       6 calls)
     fftw         :      1.87s CPU      1.88s WALL (    1344 calls)

     Parallel routines

     PWSCF        :      2.85s CPU      2.89s WALL


   This run was terminated on:   2: 2:55   7Oct2020            

=------------------------------------------------------------------------------=
   JOB DONE.
=------------------------------------------------------------------------------=
