
     Program PWSCF v.6.4.1 starts on  2Oct2020 at  0:29:45 

     This program is part of the open-source Quantum ESPRESSO suite
     for quantum simulation of materials; please cite
         "P. Giannozzi et al., J. Phys.:Condens. Matter 21 395502 (2009);
         "P. Giannozzi et al., J. Phys.:Condens. Matter 29 465901 (2017);
          URL http://www.quantum-espresso.org", 
     in publications or presentations arising from this work. More details at
     http://www.quantum-espresso.org/quote

     Parallel version (MPI), running on     1 processors

     MPI processes distributed on     1 nodes
     Waiting for input...
     Reading input from standard input
Warning: card &IONS ignored
Warning: card / ignored
Warning: card &CELL ignored
Warning: card / ignored

     Current dimensions of program PWSCF are:
     Max number of different atomic species (ntypx) = 10
     Max number of k-points (npk) =  40000
     Max angular momentum in pseudopotentials (lmaxx) =  3

     Subspace diagonalization in iterative solution of the eigenvalue problem:
     a serial algorithm will be used

     Message from routine setup:
     DEPRECATED: symmetry with ibrav=0, use correct ibrav instead

     G-vector sticks info
     --------------------
     sticks:   dense  smooth     PW     G-vecs:    dense   smooth      PW
     Sum         121     121     43                  893      893     181



     bravais-lattice index     =            0
     lattice parameter (alat)  =       6.6812  a.u.
     unit-cell volume          =     210.8855 (a.u.)^3
     number of atoms/cell      =            2
     number of atomic types    =            1
     number of electrons       =         8.00
     number of Kohn-Sham states=            4
     kinetic-energy cutoff     =      10.0000  Ry
     charge density cutoff     =      40.0000  Ry
     convergence threshold     =      1.0E-07
     mixing beta               =       0.5000
     number of iterations used =            8  plain     mixing
     Exchange-correlation      = SLA PZ NOGX NOGC ( 1  1  0  0 0 0)

     celldm(1)=   6.681191  celldm(2)=   0.000000  celldm(3)=   0.000000
     celldm(4)=   0.000000  celldm(5)=   0.000000  celldm(6)=   0.000000

     crystal axes: (cart. coord. in units of alat)
               a(1) = (   0.000000   0.707107   0.707107 )  
               a(2) = (   0.707107   0.000000   0.707107 )  
               a(3) = (   0.707107   0.707107   0.000000 )  

     reciprocal axes: (cart. coord. in units 2 pi/alat)
               b(1) = ( -0.707107  0.707107  0.707107 )  
               b(2) = (  0.707107 -0.707107  0.707107 )  
               b(3) = (  0.707107  0.707107 -0.707107 )  


     PseudoPot. # 1 for Ge read from file:
     /home/modeler/qe_pseudo/Ge.pz-bhs.UPF
     MD5 check sum: 4f8fee77de72fb640d24dcbf01bda005
     Pseudo is Norm-conserving, Zval =  4.0
     Generated by new atomic code, or converted to UPF format
     Using radial grid of  291 points,  2 beta functions with: 
                l(1) =   0
                l(2) =   1

     atomic species   valence    mass     pseudopotential
        Ge             4.00    72.63000     Ge( 1.00)

     48 Sym. Ops., with inversion, found (24 have fractional translation)



   Cartesian axes

     site n.     atom                  positions (alat units)
         1           Ge  tau(   1) = (   0.0000000   0.0000000   0.0000000  )
         2           Ge  tau(   2) = (   0.3535534   0.3535534   0.3535534  )

     number of k points=     4
                       cart. coord. in units 2pi/alat
        k(    1) = (   0.0000000   0.0000000   0.0000000), wk =   0.0740741
        k(    2) = (   0.2357023   0.2357023  -0.2357023), wk =   0.5925926
        k(    3) = (   0.4714045   0.0000000   0.0000000), wk =   0.4444444
        k(    4) = (  -0.0000000  -0.4714045   0.4714045), wk =   0.8888889

     Dense  grid:      893 G-vectors     FFT dimensions: (  16,  16,  16)

     Estimated max dynamical RAM per process >       0.81 MB

     Initial potential from superposition of free atoms

     starting charge    6.99990, renormalised to    8.00000
     Starting wfcs are    8 randomized atomic wfcs

     total cpu time spent up to now is        0.0 secs

     Self-consistent Calculation

     iteration #  1     ecut=    10.00 Ry     beta= 0.50
     Davidson diagonalization with overlap
     ethr =  1.00E-02,  avg # of iterations =  1.8

     Threshold (ethr) on eigenvalues was too large:
     Diagonalizing with lowered threshold

     Davidson diagonalization with overlap
     ethr =  3.79E-04,  avg # of iterations =  2.5

     total cpu time spent up to now is        0.1 secs

     total energy              =     -15.79235015 Ry
     Harris-Foulkes estimate   =     -15.79742903 Ry
     estimated scf accuracy    <       0.03660852 Ry

     iteration #  2     ecut=    10.00 Ry     beta= 0.50
     Davidson diagonalization with overlap
     ethr =  4.58E-04,  avg # of iterations =  1.0

     total cpu time spent up to now is        0.1 secs

     total energy              =     -15.79146333 Ry
     Harris-Foulkes estimate   =     -15.79270726 Ry
     estimated scf accuracy    <       0.00797045 Ry

     iteration #  3     ecut=    10.00 Ry     beta= 0.50
     Davidson diagonalization with overlap
     ethr =  9.96E-05,  avg # of iterations =  1.2

     total cpu time spent up to now is        0.1 secs

     total energy              =     -15.79169401 Ry
     Harris-Foulkes estimate   =     -15.79171547 Ry
     estimated scf accuracy    <       0.00005410 Ry

     iteration #  4     ecut=    10.00 Ry     beta= 0.50
     Davidson diagonalization with overlap
     ethr =  6.76E-07,  avg # of iterations =  3.2

     total cpu time spent up to now is        0.1 secs

     total energy              =     -15.79173300 Ry
     Harris-Foulkes estimate   =     -15.79173503 Ry
     estimated scf accuracy    <       0.00000453 Ry

     iteration #  5     ecut=    10.00 Ry     beta= 0.50
     Davidson diagonalization with overlap
     ethr =  5.66E-08,  avg # of iterations =  2.0

     total cpu time spent up to now is        0.1 secs

     total energy              =     -15.79173348 Ry
     Harris-Foulkes estimate   =     -15.79173347 Ry
     estimated scf accuracy    <       0.00000018 Ry

     iteration #  6     ecut=    10.00 Ry     beta= 0.50
     Davidson diagonalization with overlap
     ethr =  2.20E-09,  avg # of iterations =  2.5

     total cpu time spent up to now is        0.1 secs

     total energy              =     -15.79173347 Ry
     Harris-Foulkes estimate   =     -15.79173356 Ry
     estimated scf accuracy    <       0.00000017 Ry

     iteration #  7     ecut=    10.00 Ry     beta= 0.50
     Davidson diagonalization with overlap
     ethr =  2.08E-09,  avg # of iterations =  1.2

     total cpu time spent up to now is        0.1 secs

     End of self-consistent calculation

          k = 0.0000 0.0000 0.0000 (   113 PWs)   bands (ev):

    -5.6078  10.0872  10.0872  10.0872

          k = 0.2357 0.2357-0.2357 (   111 PWs)   bands (ev):

    -3.9669   2.5058   8.4435   8.4435

          k = 0.4714 0.0000 0.0000 (   113 PWs)   bands (ev):

    -3.3518   3.2773   6.2633   6.2633

          k =-0.0000-0.4714 0.4714 (   116 PWs)   bands (ev):

    -1.5771   0.8327   3.3236   6.7250

     highest occupied level (ev):    10.0872

!    total energy              =     -15.79173349 Ry
     Harris-Foulkes estimate   =     -15.79173349 Ry
     estimated scf accuracy    <          3.3E-09 Ry

     The total energy is the sum of the following terms:

     one-electron contribution =       6.61257854 Ry
     hartree contribution      =       0.91288562 Ry
     xc contribution           =      -5.07354483 Ry
     ewald contribution        =     -18.24365282 Ry

     convergence has been achieved in   7 iterations

     Forces acting on atoms (cartesian axes, Ry/au):

     atom    1 type  1   force =     0.00000000    0.00000000   -0.00000000
     atom    2 type  1   force =     0.00000000   -0.00000000   -0.00000000

     Total force =     0.000000     Total SCF correction =     0.000000


     Computing stress (Cartesian axis) and pressure

          total   stress  (Ry/bohr**3)                   (kbar)     P=  521.07
   0.00354218  -0.00000000   0.00000000        521.07     -0.00      0.00
  -0.00000000   0.00354218   0.00000000         -0.00    521.07      0.00
  -0.00000000   0.00000000   0.00354218         -0.00      0.00    521.07


     init_run     :      0.01s CPU      0.01s WALL (       1 calls)
     electrons    :      0.04s CPU      0.04s WALL (       1 calls)
     forces       :      0.00s CPU      0.00s WALL (       1 calls)
     stress       :      0.00s CPU      0.00s WALL (       1 calls)

     Called by init_run:
     wfcinit      :      0.00s CPU      0.00s WALL (       1 calls)
     potinit      :      0.00s CPU      0.00s WALL (       1 calls)
     hinit0       :      0.01s CPU      0.01s WALL (       1 calls)

     Called by electrons:
     c_bands      :      0.03s CPU      0.03s WALL (       8 calls)
     sum_band     :      0.01s CPU      0.01s WALL (       8 calls)
     v_of_rho     :      0.00s CPU      0.00s WALL (       8 calls)
     mix_rho      :      0.00s CPU      0.00s WALL (       8 calls)

     Called by c_bands:
     init_us_2    :      0.00s CPU      0.00s WALL (      76 calls)
     cegterg      :      0.03s CPU      0.03s WALL (      32 calls)

     Called by sum_band:

     Called by *egterg:
     h_psi        :      0.02s CPU      0.02s WALL (      98 calls)
     g_psi        :      0.00s CPU      0.00s WALL (      62 calls)
     cdiaghg      :      0.00s CPU      0.00s WALL (      90 calls)

     Called by h_psi:
     h_psi:pot    :      0.02s CPU      0.02s WALL (      98 calls)
     h_psi:calbec :      0.00s CPU      0.00s WALL (      98 calls)
     vloc_psi     :      0.02s CPU      0.02s WALL (      98 calls)
     add_vuspsi   :      0.00s CPU      0.00s WALL (      98 calls)

     General routines
     calbec       :      0.00s CPU      0.00s WALL (     118 calls)
     fft          :      0.00s CPU      0.00s WALL (      29 calls)
     ffts         :      0.00s CPU      0.00s WALL (       8 calls)
     fftw         :      0.01s CPU      0.01s WALL (     844 calls)

     Parallel routines

     PWSCF        :      0.09s CPU      0.09s WALL


   This run was terminated on:   0:29:46   2Oct2020            

=------------------------------------------------------------------------------=
   JOB DONE.
=------------------------------------------------------------------------------=
