
     Program PWSCF v.6.4.1 starts on  7Oct2020 at  0:38: 8 

     This program is part of the open-source Quantum ESPRESSO suite
     for quantum simulation of materials; please cite
         "P. Giannozzi et al., J. Phys.:Condens. Matter 21 395502 (2009);
         "P. Giannozzi et al., J. Phys.:Condens. Matter 29 465901 (2017);
          URL http://www.quantum-espresso.org", 
     in publications or presentations arising from this work. More details at
     http://www.quantum-espresso.org/quote

     Parallel version (MPI), running on     1 processors

     MPI processes distributed on     1 nodes
     Waiting for input...
     Reading input from standard input
Warning: card &IONS ignored
Warning: card / ignored
Warning: card &CELL ignored
Warning: card / ignored

     Current dimensions of program PWSCF are:
     Max number of different atomic species (ntypx) = 10
     Max number of k-points (npk) =  40000
     Max angular momentum in pseudopotentials (lmaxx) =  3

     Subspace diagonalization in iterative solution of the eigenvalue problem:
     a serial algorithm will be used

     Message from routine setup:
     DEPRECATED: symmetry with ibrav=0, use correct ibrav instead

     G-vector sticks info
     --------------------
     sticks:   dense  smooth     PW     G-vecs:    dense   smooth      PW
     Sum         613     613    187                10081    10081    1687



     bravais-lattice index     =            0
     lattice parameter (alat)  =       6.6812  a.u.
     unit-cell volume          =     210.8855 (a.u.)^3
     number of atoms/cell      =            2
     number of atomic types    =            1
     number of electrons       =         8.00
     number of Kohn-Sham states=            4
     kinetic-energy cutoff     =      50.0000  Ry
     charge density cutoff     =     200.0000  Ry
     convergence threshold     =      1.0E-07
     mixing beta               =       0.5000
     number of iterations used =            8  plain     mixing
     Exchange-correlation      = SLA PZ NOGX NOGC ( 1  1  0  0 0 0)

     celldm(1)=   6.681191  celldm(2)=   0.000000  celldm(3)=   0.000000
     celldm(4)=   0.000000  celldm(5)=   0.000000  celldm(6)=   0.000000

     crystal axes: (cart. coord. in units of alat)
               a(1) = (   0.000000   0.707107   0.707107 )  
               a(2) = (   0.707107   0.000000   0.707107 )  
               a(3) = (   0.707107   0.707107   0.000000 )  

     reciprocal axes: (cart. coord. in units 2 pi/alat)
               b(1) = ( -0.707107  0.707107  0.707107 )  
               b(2) = (  0.707107 -0.707107  0.707107 )  
               b(3) = (  0.707107  0.707107 -0.707107 )  


     PseudoPot. # 1 for Ge read from file:
     /home/modeler/qe_pseudo/Ge.pz-bhs.UPF
     MD5 check sum: 4f8fee77de72fb640d24dcbf01bda005
     Pseudo is Norm-conserving, Zval =  4.0
     Generated by new atomic code, or converted to UPF format
     Using radial grid of  291 points,  2 beta functions with: 
                l(1) =   0
                l(2) =   1

     atomic species   valence    mass     pseudopotential
        Ge             4.00    72.63000     Ge( 1.00)

      4 Sym. Ops. (no inversion) found



   Cartesian axes

     site n.     atom                  positions (alat units)
         1           Ge  tau(   1) = (   0.0000000   0.0000000   0.0707107  )
         2           Ge  tau(   2) = (   0.3535534   0.3535534   0.3535534  )

     number of k points=    18
                       cart. coord. in units 2pi/alat
        k(    1) = (   0.0000000   0.0000000   0.0000000), wk =   0.0312500
        k(    2) = (   0.1767767   0.1767767  -0.1767767), wk =   0.1250000
        k(    3) = (  -0.3535534  -0.3535534   0.3535534), wk =   0.0625000
        k(    4) = (   0.3535534   0.0000000   0.0000000), wk =   0.1250000
        k(    5) = (  -0.1767767  -0.5303301   0.5303301), wk =   0.2500000
        k(    6) = (   0.0000000  -0.3535534   0.3535534), wk =   0.2500000
        k(    7) = (  -0.7071068   0.0000000   0.0000000), wk =   0.0625000
        k(    8) = (  -0.7071068   0.3535534   0.0000000), wk =   0.1250000
        k(    9) = (   0.1767767  -0.1767767  -0.1767767), wk =   0.1250000
        k(   10) = (  -0.3535534   0.3535534   0.3535534), wk =   0.0625000
        k(   11) = (   0.0000000   0.0000000   0.3535534), wk =   0.0625000
        k(   12) = (  -0.5303301   0.1767767   0.5303301), wk =   0.2500000
        k(   13) = (   0.5303301   0.5303301  -0.1767767), wk =   0.1250000
        k(   14) = (  -0.5303301   0.5303301   0.1767767), wk =   0.1250000
        k(   15) = (   0.3535534   0.3535534   0.0000000), wk =   0.0625000
        k(   16) = (  -0.3535534   0.3535534   0.0000000), wk =   0.0625000
        k(   17) = (   0.0000000   0.0000000  -0.7071068), wk =   0.0312500
        k(   18) = (   0.7071068  -0.0000000   0.3535534), wk =   0.0625000

     Dense  grid:    10081 G-vectors     FFT dimensions: (  32,  32,  32)

     Estimated max dynamical RAM per process >       8.79 MB

     Initial potential from superposition of free atoms

     starting charge    6.99990, renormalised to    8.00000
     Starting wfcs are    8 randomized atomic wfcs

     total cpu time spent up to now is        0.2 secs

     Self-consistent Calculation

     iteration #  1     ecut=    50.00 Ry     beta= 0.50
     Davidson diagonalization with overlap
     ethr =  1.00E-02,  avg # of iterations =  1.6

     Threshold (ethr) on eigenvalues was too large:
     Diagonalizing with lowered threshold

     Davidson diagonalization with overlap
     ethr =  3.05E-04,  avg # of iterations =  3.1

     total cpu time spent up to now is        0.5 secs

     total energy              =     -15.82408245 Ry
     Harris-Foulkes estimate   =     -15.82879638 Ry
     estimated scf accuracy    <       0.03028531 Ry

     iteration #  2     ecut=    50.00 Ry     beta= 0.50
     Davidson diagonalization with overlap
     ethr =  3.79E-04,  avg # of iterations =  1.0

     total cpu time spent up to now is        0.6 secs

     total energy              =     -15.82323048 Ry
     Harris-Foulkes estimate   =     -15.82438819 Ry
     estimated scf accuracy    <       0.00651183 Ry

     iteration #  3     ecut=    50.00 Ry     beta= 0.50
     Davidson diagonalization with overlap
     ethr =  8.14E-05,  avg # of iterations =  1.0

     total cpu time spent up to now is        0.7 secs

     total energy              =     -15.82340328 Ry
     Harris-Foulkes estimate   =     -15.82342403 Ry
     estimated scf accuracy    <       0.00004737 Ry

     iteration #  4     ecut=    50.00 Ry     beta= 0.50
     Davidson diagonalization with overlap
     ethr =  5.92E-07,  avg # of iterations =  3.2

     total cpu time spent up to now is        0.9 secs

     total energy              =     -15.82344759 Ry
     Harris-Foulkes estimate   =     -15.82344884 Ry
     estimated scf accuracy    <       0.00000287 Ry

     iteration #  5     ecut=    50.00 Ry     beta= 0.50
     Davidson diagonalization with overlap
     ethr =  3.59E-08,  avg # of iterations =  1.9

     total cpu time spent up to now is        1.0 secs

     total energy              =     -15.82344792 Ry
     Harris-Foulkes estimate   =     -15.82344791 Ry
     estimated scf accuracy    <       0.00000014 Ry

     iteration #  6     ecut=    50.00 Ry     beta= 0.50
     Davidson diagonalization with overlap
     ethr =  1.81E-09,  avg # of iterations =  2.5

     total cpu time spent up to now is        1.2 secs

     End of self-consistent calculation

          k = 0.0000 0.0000 0.0000 (  1243 PWs)   bands (ev):

    -5.7931   8.4610  10.2339  11.5161

          k = 0.1768 0.1768-0.1768 (  1260 PWs)   bands (ev):

    -4.8290   3.7985   8.3284   9.5023

          k =-0.3536-0.3536 0.3536 (  1260 PWs)   bands (ev):

    -2.5754  -0.6127   7.5349   8.8468

          k = 0.3536 0.0000 0.0000 (  1283 PWs)   bands (ev):

    -4.5353   4.6983   7.0441   7.4230

          k =-0.1768-0.5303 0.5303 (  1247 PWs)   bands (ev):

    -2.3101   0.4211   5.0332   6.6195

          k = 0.0000-0.3536 0.3536 (  1264 PWs)   bands (ev):

    -3.3728   2.3309   4.1536   8.0018

          k =-0.7071 0.0000 0.0000 (  1266 PWs)   bands (ev):

    -0.7705  -0.7705   5.6713   5.6713

          k =-0.7071 0.3536 0.0000 (  1232 PWs)   bands (ev):

    -1.1286   0.3041   3.6077   4.4290

          k = 0.1768-0.1768-0.1768 (  1260 PWs)   bands (ev):

    -4.8984   4.7170   7.6206   9.4729

          k =-0.3536 0.3536 0.3536 (  1260 PWs)   bands (ev):

    -3.2240   0.7707   7.0526   8.9167

          k = 0.0000 0.0000 0.3536 (  1283 PWs)   bands (ev):

    -4.5447   5.3618   6.2586   7.3558

          k =-0.5303 0.1768 0.5303 (  1247 PWs)   bands (ev):

    -2.7112   1.7726   3.9747   6.7416

          k = 0.5303 0.5303-0.1768 (  1247 PWs)   bands (ev):

    -2.4133   0.8499   4.2238   6.9168

          k =-0.5303 0.5303 0.1768 (  1247 PWs)   bands (ev):

    -2.7282   1.6216   5.0359   5.8269

          k = 0.3536 0.3536 0.0000 (  1264 PWs)   bands (ev):

    -3.1712   1.4159   4.3847   8.5056

          k =-0.3536 0.3536 0.0000 (  1264 PWs)   bands (ev):

    -3.5372   3.3734   4.1691   6.9250

          k = 0.0000 0.0000-0.7071 (  1266 PWs)   bands (ev):

    -1.5207   0.2990   4.9855   5.8619

          k = 0.7071-0.0000 0.3536 (  1232 PWs)   bands (ev):

    -0.5264  -0.5264   4.1506   4.1507

     highest occupied level (ev):    11.5161

!    total energy              =     -15.82344792 Ry
     Harris-Foulkes estimate   =     -15.82344796 Ry
     estimated scf accuracy    <       0.00000009 Ry

     The total energy is the sum of the following terms:

     one-electron contribution =       6.52759339 Ry
     hartree contribution      =       0.88758770 Ry
     xc contribution           =      -5.06381965 Ry
     ewald contribution        =     -18.17480935 Ry

     convergence has been achieved in   6 iterations

     Forces acting on atoms (cartesian axes, Ry/au):

     atom    1 type  1   force =     0.00000000    0.00000000   -0.21722955
     atom    2 type  1   force =     0.00000000    0.00000000    0.21722955

     Total force =     0.307209     Total SCF correction =     0.000064


     Computing stress (Cartesian axis) and pressure

          total   stress  (Ry/bohr**3)                   (kbar)     P=  590.76
   0.00427932   0.00220698   0.00000000        629.51    324.66      0.00
   0.00220698   0.00427932   0.00000000        324.66    629.51      0.00
  -0.00000000   0.00000000   0.00348905         -0.00      0.00    513.26


     init_run     :      0.13s CPU      0.13s WALL (       1 calls)
     electrons    :      1.03s CPU      1.04s WALL (       1 calls)
     forces       :      0.02s CPU      0.02s WALL (       1 calls)
     stress       :      0.08s CPU      0.08s WALL (       1 calls)

     Called by init_run:
     wfcinit      :      0.10s CPU      0.10s WALL (       1 calls)
     potinit      :      0.00s CPU      0.00s WALL (       1 calls)
     hinit0       :      0.02s CPU      0.02s WALL (       1 calls)

     Called by electrons:
     c_bands      :      0.85s CPU      0.85s WALL (       7 calls)
     sum_band     :      0.15s CPU      0.15s WALL (       7 calls)
     v_of_rho     :      0.02s CPU      0.02s WALL (       7 calls)
     mix_rho      :      0.01s CPU      0.01s WALL (       7 calls)

     Called by c_bands:
     init_us_2    :      0.07s CPU      0.07s WALL (     306 calls)
     cegterg      :      0.79s CPU      0.80s WALL (     126 calls)

     Called by sum_band:

     Called by *egterg:
     h_psi        :      0.71s CPU      0.72s WALL (     402 calls)
     g_psi        :      0.01s CPU      0.01s WALL (     258 calls)
     cdiaghg      :      0.02s CPU      0.02s WALL (     366 calls)

     Called by h_psi:
     h_psi:pot    :      0.71s CPU      0.71s WALL (     402 calls)
     h_psi:calbec :      0.04s CPU      0.04s WALL (     402 calls)
     vloc_psi     :      0.64s CPU      0.64s WALL (     402 calls)
     add_vuspsi   :      0.03s CPU      0.03s WALL (     402 calls)

     General routines
     calbec       :      0.04s CPU      0.04s WALL (     492 calls)
     fft          :      0.01s CPU      0.01s WALL (      26 calls)
     ffts         :      0.00s CPU      0.00s WALL (       7 calls)
     fftw         :      0.55s CPU      0.55s WALL (    3472 calls)

     Parallel routines

     PWSCF        :      1.28s CPU      1.30s WALL


   This run was terminated on:   0:38: 9   7Oct2020            

=------------------------------------------------------------------------------=
   JOB DONE.
=------------------------------------------------------------------------------=
