
     Program PWSCF v.6.4.1 starts on  7Oct2020 at  3:49:36 

     This program is part of the open-source Quantum ESPRESSO suite
     for quantum simulation of materials; please cite
         "P. Giannozzi et al., J. Phys.:Condens. Matter 21 395502 (2009);
         "P. Giannozzi et al., J. Phys.:Condens. Matter 29 465901 (2017);
          URL http://www.quantum-espresso.org", 
     in publications or presentations arising from this work. More details at
     http://www.quantum-espresso.org/quote

     Parallel version (MPI), running on     1 processors

     MPI processes distributed on     1 nodes
     Waiting for input...
     Reading input from standard input
Warning: card &IONS ignored
Warning: card / ignored
Warning: card &CELL ignored
Warning: card / ignored

     Current dimensions of program PWSCF are:
     Max number of different atomic species (ntypx) = 10
     Max number of k-points (npk) =  40000
     Max angular momentum in pseudopotentials (lmaxx) =  3

     Subspace diagonalization in iterative solution of the eigenvalue problem:
     a serial algorithm will be used

     Message from routine setup:
     DEPRECATED: symmetry with ibrav=0, use correct ibrav instead

     G-vector sticks info
     --------------------
     sticks:   dense  smooth     PW     G-vecs:    dense   smooth      PW
     Sum         517     517    163                 7991     7991    1411



     bravais-lattice index     =            0
     lattice parameter (alat)  =       6.9484  a.u.
     unit-cell volume          =     237.2175 (a.u.)^3
     number of atoms/cell      =            2
     number of atomic types    =            1
     number of electrons       =         8.00
     number of Kohn-Sham states=            4
     kinetic-energy cutoff     =      40.0000  Ry
     charge density cutoff     =     160.0000  Ry
     convergence threshold     =      1.0E-07
     mixing beta               =       0.5000
     number of iterations used =            8  plain     mixing
     Exchange-correlation      = SLA PZ NOGX NOGC ( 1  1  0  0 0 0)

     celldm(1)=   6.948438  celldm(2)=   0.000000  celldm(3)=   0.000000
     celldm(4)=   0.000000  celldm(5)=   0.000000  celldm(6)=   0.000000

     crystal axes: (cart. coord. in units of alat)
               a(1) = (   0.000000   0.707107   0.707107 )  
               a(2) = (   0.707107   0.000000   0.707107 )  
               a(3) = (   0.707107   0.707107   0.000000 )  

     reciprocal axes: (cart. coord. in units 2 pi/alat)
               b(1) = ( -0.707107  0.707107  0.707107 )  
               b(2) = (  0.707107 -0.707107  0.707107 )  
               b(3) = (  0.707107  0.707107 -0.707107 )  


     PseudoPot. # 1 for Ge read from file:
     /home/modeler/qe_pseudo/Ge.pz-bhs.UPF
     MD5 check sum: 4f8fee77de72fb640d24dcbf01bda005
     Pseudo is Norm-conserving, Zval =  4.0
     Generated by new atomic code, or converted to UPF format
     Using radial grid of  291 points,  2 beta functions with: 
                l(1) =   0
                l(2) =   1

     atomic species   valence    mass     pseudopotential
        Ge             4.00    72.63000     Ge( 1.00)

     48 Sym. Ops., with inversion, found (24 have fractional translation)



   Cartesian axes

     site n.     atom                  positions (alat units)
         1           Ge  tau(   1) = (   0.0000000   0.0000000   0.0000000  )
         2           Ge  tau(   2) = (   0.3535534   0.3535534   0.3535534  )

     number of k points=    10
                       cart. coord. in units 2pi/alat
        k(    1) = (   0.0000000   0.0000000   0.0000000), wk =   0.0160000
        k(    2) = (   0.1414214   0.1414214  -0.1414214), wk =   0.1280000
        k(    3) = (   0.2828427   0.2828427  -0.2828427), wk =   0.1280000
        k(    4) = (   0.2828427   0.0000000   0.0000000), wk =   0.0960000
        k(    5) = (   0.4242641   0.1414214  -0.1414214), wk =   0.3840000
        k(    6) = (  -0.1414214  -0.4242641   0.4242641), wk =   0.3840000
        k(    7) = (   0.0000000  -0.2828427   0.2828427), wk =   0.1920000
        k(    8) = (   0.5656854   0.0000000   0.0000000), wk =   0.0960000
        k(    9) = (   0.0000000  -0.5656854   0.5656854), wk =   0.1920000
        k(   10) = (  -0.1414214  -0.4242641   0.7071068), wk =   0.3840000

     Dense  grid:     7991 G-vectors     FFT dimensions: (  32,  32,  32)

     Estimated max dynamical RAM per process >       6.98 MB

     Initial potential from superposition of free atoms

     starting charge    6.99990, renormalised to    8.00000
     Starting wfcs are    8 randomized atomic wfcs

     total cpu time spent up to now is        0.1 secs

     Self-consistent Calculation

     iteration #  1     ecut=    40.00 Ry     beta= 0.50
     Davidson diagonalization with overlap
     ethr =  1.00E-02,  avg # of iterations =  1.5

     Threshold (ethr) on eigenvalues was too large:
     Diagonalizing with lowered threshold

     Davidson diagonalization with overlap
     ethr =  2.60E-04,  avg # of iterations =  2.9

     total cpu time spent up to now is        0.3 secs

     total energy              =     -15.96182335 Ry
     Harris-Foulkes estimate   =     -15.96475521 Ry
     estimated scf accuracy    <       0.02506354 Ry

     iteration #  2     ecut=    40.00 Ry     beta= 0.50
     Davidson diagonalization with overlap
     ethr =  3.13E-04,  avg # of iterations =  1.0

     total cpu time spent up to now is        0.3 secs

     total energy              =     -15.96101598 Ry
     Harris-Foulkes estimate   =     -15.96192139 Ry
     estimated scf accuracy    <       0.00577748 Ry

     iteration #  3     ecut=    40.00 Ry     beta= 0.50
     Davidson diagonalization with overlap
     ethr =  7.22E-05,  avg # of iterations =  1.0

     total cpu time spent up to now is        0.4 secs

     total energy              =     -15.96107875 Ry
     Harris-Foulkes estimate   =     -15.96109135 Ry
     estimated scf accuracy    <       0.00002402 Ry

     iteration #  4     ecut=    40.00 Ry     beta= 0.50
     Davidson diagonalization with overlap
     ethr =  3.00E-07,  avg # of iterations =  2.9

     total cpu time spent up to now is        0.5 secs

     total energy              =     -15.96109129 Ry
     Harris-Foulkes estimate   =     -15.96109432 Ry
     estimated scf accuracy    <       0.00000544 Ry

     iteration #  5     ecut=    40.00 Ry     beta= 0.50
     Davidson diagonalization with overlap
     ethr =  6.80E-08,  avg # of iterations =  2.0

     total cpu time spent up to now is        0.6 secs

     total energy              =     -15.96109218 Ry
     Harris-Foulkes estimate   =     -15.96109226 Ry
     estimated scf accuracy    <       0.00000016 Ry

     iteration #  6     ecut=    40.00 Ry     beta= 0.50
     Davidson diagonalization with overlap
     ethr =  1.97E-09,  avg # of iterations =  2.5

     total cpu time spent up to now is        0.6 secs

     End of self-consistent calculation

          k = 0.0000 0.0000 0.0000 (   965 PWs)   bands (ev):

    -6.2412   8.3189   8.3189   8.3189

          k = 0.1414 0.1414-0.1414 (   995 PWs)   bands (ev):

    -5.6891   4.2638   7.4574   7.4574

          k = 0.2828 0.2828-0.2828 (  1017 PWs)   bands (ev):

    -4.1896   0.1953   6.6887   6.6887

          k = 0.2828 0.0000 0.0000 (   998 PWs)   bands (ev):

    -5.4985   4.7897   6.2110   6.2110

          k = 0.4243 0.1414-0.1414 (  1011 PWs)   bands (ev):

    -4.2468   1.3821   4.7079   5.5270

          k =-0.1414-0.4243 0.4243 (  1012 PWs)   bands (ev):

    -3.2443  -0.3197   3.6767   5.8983

          k = 0.0000-0.2828 0.2828 (  1007 PWs)   bands (ev):

    -4.7852   2.4214   4.2147   7.0832

          k = 0.5657 0.0000 0.0000 (  1014 PWs)   bands (ev):

    -3.2698   0.3292   4.6065   4.6065

          k = 0.0000-0.5657 0.5657 (  1015 PWs)   bands (ev):

    -1.8807  -1.1800   2.8712   4.7600

          k =-0.1414-0.4243 0.7071 (  1031 PWs)   bands (ev):

    -2.7639  -0.1353   2.9788   4.2265

     highest occupied level (ev):     8.3189

!    total energy              =     -15.96109224 Ry
     Harris-Foulkes estimate   =     -15.96109224 Ry
     estimated scf accuracy    <          3.3E-09 Ry

     The total energy is the sum of the following terms:

     one-electron contribution =       5.53268511 Ry
     hartree contribution      =       0.96975606 Ry
     xc contribution           =      -4.92155951 Ry
     ewald contribution        =     -17.54197390 Ry

     convergence has been achieved in   6 iterations

     Forces acting on atoms (cartesian axes, Ry/au):

     atom    1 type  1   force =    -0.00000000    0.00000000   -0.00000000
     atom    2 type  1   force =    -0.00000000    0.00000000    0.00000000

     Total force =     0.000000     Total SCF correction =     0.000000


     Computing stress (Cartesian axis) and pressure

          total   stress  (Ry/bohr**3)                   (kbar)     P=  275.12
   0.00187023   0.00000000  -0.00000000        275.12      0.00     -0.00
   0.00000000   0.00187023  -0.00000000          0.00    275.12     -0.00
  -0.00000000  -0.00000000   0.00187023         -0.00     -0.00    275.12


     init_run     :      0.07s CPU      0.08s WALL (       1 calls)
     electrons    :      0.54s CPU      0.54s WALL (       1 calls)
     forces       :      0.01s CPU      0.01s WALL (       1 calls)
     stress       :      0.05s CPU      0.05s WALL (       1 calls)

     Called by init_run:
     wfcinit      :      0.05s CPU      0.05s WALL (       1 calls)
     potinit      :      0.00s CPU      0.00s WALL (       1 calls)
     hinit0       :      0.02s CPU      0.02s WALL (       1 calls)

     Called by electrons:
     c_bands      :      0.42s CPU      0.43s WALL (       7 calls)
     sum_band     :      0.09s CPU      0.09s WALL (       7 calls)
     v_of_rho     :      0.01s CPU      0.02s WALL (       7 calls)
     mix_rho      :      0.01s CPU      0.01s WALL (       7 calls)

     Called by c_bands:
     init_us_2    :      0.03s CPU      0.03s WALL (     170 calls)
     cegterg      :      0.40s CPU      0.40s WALL (      70 calls)

     Called by sum_band:

     Called by *egterg:
     h_psi        :      0.36s CPU      0.37s WALL (     218 calls)
     g_psi        :      0.00s CPU      0.00s WALL (     138 calls)
     cdiaghg      :      0.01s CPU      0.01s WALL (     198 calls)

     Called by h_psi:
     h_psi:pot    :      0.36s CPU      0.36s WALL (     218 calls)
     h_psi:calbec :      0.02s CPU      0.02s WALL (     218 calls)
     vloc_psi     :      0.33s CPU      0.33s WALL (     218 calls)
     add_vuspsi   :      0.01s CPU      0.01s WALL (     218 calls)

     General routines
     calbec       :      0.02s CPU      0.02s WALL (     268 calls)
     fft          :      0.01s CPU      0.01s WALL (      26 calls)
     ffts         :      0.00s CPU      0.00s WALL (       7 calls)
     fftw         :      0.28s CPU      0.28s WALL (    1926 calls)

     Parallel routines

     PWSCF        :      0.69s CPU      0.70s WALL


   This run was terminated on:   3:49:37   7Oct2020            

=------------------------------------------------------------------------------=
   JOB DONE.
=------------------------------------------------------------------------------=
