
     Program PWSCF v.6.4.1 starts on  2Oct2020 at  0:15:42 

     This program is part of the open-source Quantum ESPRESSO suite
     for quantum simulation of materials; please cite
         "P. Giannozzi et al., J. Phys.:Condens. Matter 21 395502 (2009);
         "P. Giannozzi et al., J. Phys.:Condens. Matter 29 465901 (2017);
          URL http://www.quantum-espresso.org", 
     in publications or presentations arising from this work. More details at
     http://www.quantum-espresso.org/quote

     Parallel version (MPI), running on     1 processors

     MPI processes distributed on     1 nodes
     Waiting for input...
     Reading input from standard input
Warning: card &IONS ignored
Warning: card / ignored
Warning: card &CELL ignored
Warning: card / ignored

     Current dimensions of program PWSCF are:
     Max number of different atomic species (ntypx) = 10
     Max number of k-points (npk) =  40000
     Max angular momentum in pseudopotentials (lmaxx) =  3

     Subspace diagonalization in iterative solution of the eigenvalue problem:
     a serial algorithm will be used

     Message from routine setup:
     DEPRECATED: symmetry with ibrav=0, use correct ibrav instead

     G-vector sticks info
     --------------------
     sticks:   dense  smooth     PW     G-vecs:    dense   smooth      PW
     Sum         121     121     55                  893      893     229



     bravais-lattice index     =            0
     lattice parameter (alat)  =       6.6812  a.u.
     unit-cell volume          =     210.8855 (a.u.)^3
     number of atoms/cell      =            2
     number of atomic types    =            1
     number of electrons       =         8.00
     number of Kohn-Sham states=            4
     kinetic-energy cutoff     =      10.0000  Ry
     charge density cutoff     =      40.0000  Ry
     convergence threshold     =      1.0E-07
     mixing beta               =       0.5000
     number of iterations used =            8  plain     mixing
     Exchange-correlation      = SLA PZ NOGX NOGC ( 1  1  0  0 0 0)

     celldm(1)=   6.681191  celldm(2)=   0.000000  celldm(3)=   0.000000
     celldm(4)=   0.000000  celldm(5)=   0.000000  celldm(6)=   0.000000

     crystal axes: (cart. coord. in units of alat)
               a(1) = (   0.000000   0.707107   0.707107 )  
               a(2) = (   0.707107   0.000000   0.707107 )  
               a(3) = (   0.707107   0.707107   0.000000 )  

     reciprocal axes: (cart. coord. in units 2 pi/alat)
               b(1) = ( -0.707107  0.707107  0.707107 )  
               b(2) = (  0.707107 -0.707107  0.707107 )  
               b(3) = (  0.707107  0.707107 -0.707107 )  


     PseudoPot. # 1 for Ge read from file:
     /home/modeler/qe_pseudo/Ge.pz-bhs.UPF
     MD5 check sum: 4f8fee77de72fb640d24dcbf01bda005
     Pseudo is Norm-conserving, Zval =  4.0
     Generated by new atomic code, or converted to UPF format
     Using radial grid of  291 points,  2 beta functions with: 
                l(1) =   0
                l(2) =   1

     atomic species   valence    mass     pseudopotential
        Ge             4.00    72.63000     Ge( 1.00)

     48 Sym. Ops., with inversion, found (24 have fractional translation)



   Cartesian axes

     site n.     atom                  positions (alat units)
         1           Ge  tau(   1) = (   0.0000000   0.0000000   0.0000000  )
         2           Ge  tau(   2) = (   0.3535534   0.3535534   0.3535534  )

     number of k points=    20
                       cart. coord. in units 2pi/alat
        k(    1) = (   0.0000000   0.0000000   0.0000000), wk =   0.0058309
        k(    2) = (   0.1010153   0.1010153  -0.1010153), wk =   0.0466472
        k(    3) = (   0.2020305   0.2020305  -0.2020305), wk =   0.0466472
        k(    4) = (   0.3030458   0.3030458  -0.3030458), wk =   0.0466472
        k(    5) = (   0.2020305   0.0000000   0.0000000), wk =   0.0349854
        k(    6) = (   0.3030458   0.1010153  -0.1010153), wk =   0.1399417
        k(    7) = (   0.4040610   0.2020305  -0.2020305), wk =   0.1399417
        k(    8) = (  -0.2020305  -0.4040610   0.4040610), wk =   0.1399417
        k(    9) = (  -0.1010153  -0.3030458   0.3030458), wk =   0.1399417
        k(   10) = (  -0.0000000  -0.2020305   0.2020305), wk =   0.0699708
        k(   11) = (   0.4040610   0.0000000   0.0000000), wk =   0.0349854
        k(   12) = (   0.5050763   0.1010153  -0.1010153), wk =   0.1399417
        k(   13) = (  -0.1010153  -0.5050763   0.5050763), wk =   0.1399417
        k(   14) = (   0.0000000  -0.4040610   0.4040610), wk =   0.0699708
        k(   15) = (   0.6060915   0.0000000   0.0000000), wk =   0.0349854
        k(   16) = (   0.0000000  -0.6060915   0.6060915), wk =   0.0699708
        k(   17) = (   0.4040610   0.2020305   0.0000000), wk =   0.1399417
        k(   18) = (  -0.2020305  -0.4040610   0.6060915), wk =   0.2798834
        k(   19) = (  -0.1010153  -0.5050763   0.7071068), wk =   0.1399417
        k(   20) = (   0.0000000  -0.4040610   0.6060915), wk =   0.1399417

     Dense  grid:      893 G-vectors     FFT dimensions: (  16,  16,  16)

     Estimated max dynamical RAM per process >       0.92 MB

     Initial potential from superposition of free atoms

     starting charge    6.99990, renormalised to    8.00000
     Starting wfcs are    8 randomized atomic wfcs

     total cpu time spent up to now is        0.1 secs

     Self-consistent Calculation

     iteration #  1     ecut=    10.00 Ry     beta= 0.50
     Davidson diagonalization with overlap
     ethr =  1.00E-02,  avg # of iterations =  1.6

     Threshold (ethr) on eigenvalues was too large:
     Diagonalizing with lowered threshold

     Davidson diagonalization with overlap
     ethr =  2.88E-04,  avg # of iterations =  2.6

     total cpu time spent up to now is        0.1 secs

     total energy              =     -15.86052604 Ry
     Harris-Foulkes estimate   =     -15.86304824 Ry
     estimated scf accuracy    <       0.02653935 Ry

     iteration #  2     ecut=    10.00 Ry     beta= 0.50
     Davidson diagonalization with overlap
     ethr =  3.32E-04,  avg # of iterations =  1.0

     total cpu time spent up to now is        0.1 secs

     total energy              =     -15.86001364 Ry
     Harris-Foulkes estimate   =     -15.86071358 Ry
     estimated scf accuracy    <       0.00598458 Ry

     iteration #  3     ecut=    10.00 Ry     beta= 0.50
     Davidson diagonalization with overlap
     ethr =  7.48E-05,  avg # of iterations =  1.1

     total cpu time spent up to now is        0.1 secs

     total energy              =     -15.86011356 Ry
     Harris-Foulkes estimate   =     -15.86013119 Ry
     estimated scf accuracy    <       0.00003613 Ry

     iteration #  4     ecut=    10.00 Ry     beta= 0.50
     Davidson diagonalization with overlap
     ethr =  4.52E-07,  avg # of iterations =  3.0

     total cpu time spent up to now is        0.2 secs

     total energy              =     -15.86013768 Ry
     Harris-Foulkes estimate   =     -15.86013771 Ry
     estimated scf accuracy    <       0.00000013 Ry

     iteration #  5     ecut=    10.00 Ry     beta= 0.50
     Davidson diagonalization with overlap
     ethr =  1.58E-09,  avg # of iterations =  3.5

     total cpu time spent up to now is        0.2 secs

     End of self-consistent calculation

          k = 0.0000 0.0000 0.0000 (   113 PWs)   bands (ev):

    -5.6975   9.9714   9.9714   9.9714

          k = 0.1010 0.1010-0.1010 (   116 PWs)   bands (ev):

    -5.3947   7.1641   9.3473   9.3473

          k = 0.2020 0.2020-0.2020 (   114 PWs)   bands (ev):

    -4.4889   3.4982   8.5363   8.5363

          k = 0.3030 0.3030-0.3030 (   114 PWs)   bands (ev):

    -3.1672   0.6821   8.0965   8.0965

          k = 0.2020 0.0000 0.0000 (   117 PWs)   bands (ev):

    -5.2924   7.8563   8.3441   8.3441

          k = 0.3030 0.1010-0.1010 (   114 PWs)   bands (ev):

    -4.5784   4.6954   7.5252   7.5809

          k = 0.4041 0.2020-0.2020 (   112 PWs)   bands (ev):

    -3.3216   1.6339   6.5732   7.2486

          k =-0.2020-0.4041 0.4041 (   116 PWs)   bands (ev):

    -2.5812   0.4038   5.9517   7.5584

          k =-0.1010-0.3030 0.3030 (   114 PWs)   bands (ev):

    -3.7901   2.5740   5.9095   8.3589

          k =-0.0000-0.2020 0.2020 (   117 PWs)   bands (ev):

    -4.8871   5.5978   6.8102   9.3138

          k = 0.4041 0.0000 0.0000 (   117 PWs)   bands (ev):

    -4.0485   4.3440   6.5890   6.5890

          k = 0.5051 0.1010-0.1010 (   113 PWs)   bands (ev):

    -2.9273   2.2418   5.1497   6.2080

          k =-0.1010-0.5051 0.5051 (   110 PWs)   bands (ev):

    -1.6992   0.5768   3.8072   6.4619

          k = 0.0000-0.4041 0.4041 (   111 PWs)   bands (ev):

    -2.5664   1.6211   3.6725   7.2965

          k = 0.6061 0.0000 0.0000 (   116 PWs)   bands (ev):

    -1.9583   0.9094   5.6607   5.6607

          k = 0.0000-0.6061 0.6061 (   110 PWs)   bands (ev):

    -0.6942  -0.3550   4.3313   5.7524

          k = 0.4041 0.2020 0.0000 (   114 PWs)   bands (ev):

    -3.6632   3.2486   5.1507   7.1201

          k =-0.2020-0.4041 0.6061 (   114 PWs)   bands (ev):

    -2.3264   1.0822   4.4166   6.2780

          k =-0.1010-0.5051 0.7071 (   109 PWs)   bands (ev):

    -1.6587   0.8324   4.4434   5.0035

          k = 0.0000-0.4041 0.6061 (   110 PWs)   bands (ev):

    -1.0535   0.2855   3.4995   5.1457

     highest occupied level (ev):     9.9714

!    total energy              =     -15.86013781 Ry
     Harris-Foulkes estimate   =     -15.86013782 Ry
     estimated scf accuracy    <       0.00000001 Ry

     The total energy is the sum of the following terms:

     one-electron contribution =       6.57916748 Ry
     hartree contribution      =       0.85248405 Ry
     xc contribution           =      -5.04813652 Ry
     ewald contribution        =     -18.24365282 Ry

     convergence has been achieved in   5 iterations

     Forces acting on atoms (cartesian axes, Ry/au):

     atom    1 type  1   force =    -0.00000000    0.00000000    0.00000000
     atom    2 type  1   force =     0.00000000   -0.00000000   -0.00000000

     Total force =     0.000000     Total SCF correction =     0.000000


     Computing stress (Cartesian axis) and pressure

          total   stress  (Ry/bohr**3)                   (kbar)     P=  480.41
   0.00326579  -0.00000000   0.00000000        480.41     -0.00      0.00
  -0.00000000   0.00326579   0.00000000         -0.00    480.41      0.00
  -0.00000000   0.00000000   0.00326579         -0.00      0.00    480.41


     init_run     :      0.03s CPU      0.03s WALL (       1 calls)
     electrons    :      0.13s CPU      0.14s WALL (       1 calls)
     forces       :      0.00s CPU      0.00s WALL (       1 calls)
     stress       :      0.01s CPU      0.01s WALL (       1 calls)

     Called by init_run:
     wfcinit      :      0.02s CPU      0.02s WALL (       1 calls)
     potinit      :      0.00s CPU      0.00s WALL (       1 calls)
     hinit0       :      0.01s CPU      0.01s WALL (       1 calls)

     Called by electrons:
     c_bands      :      0.11s CPU      0.12s WALL (       6 calls)
     sum_band     :      0.02s CPU      0.02s WALL (       6 calls)
     v_of_rho     :      0.00s CPU      0.00s WALL (       6 calls)
     mix_rho      :      0.00s CPU      0.00s WALL (       6 calls)

     Called by c_bands:
     init_us_2    :      0.01s CPU      0.01s WALL (     300 calls)
     cegterg      :      0.10s CPU      0.11s WALL (     120 calls)

     Called by sum_band:

     Called by *egterg:
     h_psi        :      0.08s CPU      0.09s WALL (     397 calls)
     g_psi        :      0.00s CPU      0.00s WALL (     257 calls)
     cdiaghg      :      0.01s CPU      0.02s WALL (     357 calls)

     Called by h_psi:
     h_psi:pot    :      0.08s CPU      0.09s WALL (     397 calls)
     h_psi:calbec :      0.00s CPU      0.00s WALL (     397 calls)
     vloc_psi     :      0.07s CPU      0.08s WALL (     397 calls)
     add_vuspsi   :      0.00s CPU      0.00s WALL (     397 calls)

     General routines
     calbec       :      0.00s CPU      0.00s WALL (     497 calls)
     fft          :      0.00s CPU      0.00s WALL (      23 calls)
     ffts         :      0.00s CPU      0.00s WALL (       6 calls)
     fftw         :      0.06s CPU      0.06s WALL (    3362 calls)

     Parallel routines

     PWSCF        :      0.20s CPU      0.21s WALL


   This run was terminated on:   0:15:43   2Oct2020            

=------------------------------------------------------------------------------=
   JOB DONE.
=------------------------------------------------------------------------------=
