
     Program PWSCF v.6.4.1 starts on  7Oct2020 at  0:37:59 

     This program is part of the open-source Quantum ESPRESSO suite
     for quantum simulation of materials; please cite
         "P. Giannozzi et al., J. Phys.:Condens. Matter 21 395502 (2009);
         "P. Giannozzi et al., J. Phys.:Condens. Matter 29 465901 (2017);
          URL http://www.quantum-espresso.org", 
     in publications or presentations arising from this work. More details at
     http://www.quantum-espresso.org/quote

     Parallel version (MPI), running on     1 processors

     MPI processes distributed on     1 nodes
     Waiting for input...
     Reading input from standard input
Warning: card &IONS ignored
Warning: card / ignored
Warning: card &CELL ignored
Warning: card / ignored

     Current dimensions of program PWSCF are:
     Max number of different atomic species (ntypx) = 10
     Max number of k-points (npk) =  40000
     Max angular momentum in pseudopotentials (lmaxx) =  3

     Subspace diagonalization in iterative solution of the eigenvalue problem:
     a serial algorithm will be used

     Message from routine setup:
     DEPRECATED: symmetry with ibrav=0, use correct ibrav instead

     G-vector sticks info
     --------------------
     sticks:   dense  smooth     PW     G-vecs:    dense   smooth      PW
     Sum         367     367    121                 4645     4645     869



     bravais-lattice index     =            0
     lattice parameter (alat)  =       6.6812  a.u.
     unit-cell volume          =     210.8855 (a.u.)^3
     number of atoms/cell      =            2
     number of atomic types    =            1
     number of electrons       =         8.00
     number of Kohn-Sham states=            4
     kinetic-energy cutoff     =      30.0000  Ry
     charge density cutoff     =     120.0000  Ry
     convergence threshold     =      1.0E-07
     mixing beta               =       0.5000
     number of iterations used =            8  plain     mixing
     Exchange-correlation      = SLA PZ NOGX NOGC ( 1  1  0  0 0 0)

     celldm(1)=   6.681191  celldm(2)=   0.000000  celldm(3)=   0.000000
     celldm(4)=   0.000000  celldm(5)=   0.000000  celldm(6)=   0.000000

     crystal axes: (cart. coord. in units of alat)
               a(1) = (   0.000000   0.707107   0.707107 )  
               a(2) = (   0.707107   0.000000   0.707107 )  
               a(3) = (   0.707107   0.707107   0.000000 )  

     reciprocal axes: (cart. coord. in units 2 pi/alat)
               b(1) = ( -0.707107  0.707107  0.707107 )  
               b(2) = (  0.707107 -0.707107  0.707107 )  
               b(3) = (  0.707107  0.707107 -0.707107 )  


     PseudoPot. # 1 for Ge read from file:
     /home/modeler/qe_pseudo/Ge.pz-bhs.UPF
     MD5 check sum: 4f8fee77de72fb640d24dcbf01bda005
     Pseudo is Norm-conserving, Zval =  4.0
     Generated by new atomic code, or converted to UPF format
     Using radial grid of  291 points,  2 beta functions with: 
                l(1) =   0
                l(2) =   1

     atomic species   valence    mass     pseudopotential
        Ge             4.00    72.63000     Ge( 1.00)

      4 Sym. Ops. (no inversion) found



   Cartesian axes

     site n.     atom                  positions (alat units)
         1           Ge  tau(   1) = (   0.0000000   0.0000000   0.0707107  )
         2           Ge  tau(   2) = (   0.3535534   0.3535534   0.3535534  )

     number of k points=    18
                       cart. coord. in units 2pi/alat
        k(    1) = (   0.0000000   0.0000000   0.0000000), wk =   0.0312500
        k(    2) = (   0.1767767   0.1767767  -0.1767767), wk =   0.1250000
        k(    3) = (  -0.3535534  -0.3535534   0.3535534), wk =   0.0625000
        k(    4) = (   0.3535534   0.0000000   0.0000000), wk =   0.1250000
        k(    5) = (  -0.1767767  -0.5303301   0.5303301), wk =   0.2500000
        k(    6) = (   0.0000000  -0.3535534   0.3535534), wk =   0.2500000
        k(    7) = (  -0.7071068   0.0000000   0.0000000), wk =   0.0625000
        k(    8) = (  -0.7071068   0.3535534   0.0000000), wk =   0.1250000
        k(    9) = (   0.1767767  -0.1767767  -0.1767767), wk =   0.1250000
        k(   10) = (  -0.3535534   0.3535534   0.3535534), wk =   0.0625000
        k(   11) = (   0.0000000   0.0000000   0.3535534), wk =   0.0625000
        k(   12) = (  -0.5303301   0.1767767   0.5303301), wk =   0.2500000
        k(   13) = (   0.5303301   0.5303301  -0.1767767), wk =   0.1250000
        k(   14) = (  -0.5303301   0.5303301   0.1767767), wk =   0.1250000
        k(   15) = (   0.3535534   0.3535534   0.0000000), wk =   0.0625000
        k(   16) = (  -0.3535534   0.3535534   0.0000000), wk =   0.0625000
        k(   17) = (   0.0000000   0.0000000  -0.7071068), wk =   0.0312500
        k(   18) = (   0.7071068  -0.0000000   0.3535534), wk =   0.0625000

     Dense  grid:     4645 G-vectors     FFT dimensions: (  24,  24,  24)

     Estimated max dynamical RAM per process >       4.01 MB

     Initial potential from superposition of free atoms

     starting charge    6.99990, renormalised to    8.00000
     Starting wfcs are    8 randomized atomic wfcs

     total cpu time spent up to now is        0.1 secs

     Self-consistent Calculation

     iteration #  1     ecut=    30.00 Ry     beta= 0.50
     Davidson diagonalization with overlap
     ethr =  1.00E-02,  avg # of iterations =  1.6

     Threshold (ethr) on eigenvalues was too large:
     Diagonalizing with lowered threshold

     Davidson diagonalization with overlap
     ethr =  3.08E-04,  avg # of iterations =  2.5

     total cpu time spent up to now is        0.3 secs

     total energy              =     -15.82333938 Ry
     Harris-Foulkes estimate   =     -15.82775872 Ry
     estimated scf accuracy    <       0.02914762 Ry

     iteration #  2     ecut=    30.00 Ry     beta= 0.50
     Davidson diagonalization with overlap
     ethr =  3.64E-04,  avg # of iterations =  1.0

     total cpu time spent up to now is        0.4 secs

     total energy              =     -15.82249628 Ry
     Harris-Foulkes estimate   =     -15.82361037 Ry
     estimated scf accuracy    <       0.00633987 Ry

     iteration #  3     ecut=    30.00 Ry     beta= 0.50
     Davidson diagonalization with overlap
     ethr =  7.92E-05,  avg # of iterations =  1.0

     total cpu time spent up to now is        0.5 secs

     total energy              =     -15.82265754 Ry
     Harris-Foulkes estimate   =     -15.82267596 Ry
     estimated scf accuracy    <       0.00004113 Ry

     iteration #  4     ecut=    30.00 Ry     beta= 0.50
     Davidson diagonalization with overlap
     c_bands:  1 eigenvalues not converged
     ethr =  5.14E-07,  avg # of iterations =  3.9

     total cpu time spent up to now is        0.6 secs

     total energy              =     -15.82322132 Ry
     Harris-Foulkes estimate   =     -15.82322274 Ry
     estimated scf accuracy    <       0.00008389 Ry

     iteration #  5     ecut=    30.00 Ry     beta= 0.50
     Davidson diagonalization with overlap
     ethr =  5.14E-07,  avg # of iterations =  1.0

     total cpu time spent up to now is        0.7 secs

     total energy              =     -15.82319694 Ry
     Harris-Foulkes estimate   =     -15.82322144 Ry
     estimated scf accuracy    <       0.00008006 Ry

     iteration #  6     ecut=    30.00 Ry     beta= 0.50
     Davidson diagonalization with overlap
     ethr =  5.14E-07,  avg # of iterations =  1.2

     total cpu time spent up to now is        0.7 secs

     total energy              =     -15.82319114 Ry
     Harris-Foulkes estimate   =     -15.82319942 Ry
     estimated scf accuracy    <       0.00002349 Ry

     iteration #  7     ecut=    30.00 Ry     beta= 0.50
     Davidson diagonalization with overlap
     ethr =  2.94E-07,  avg # of iterations =  1.1

     total cpu time spent up to now is        0.8 secs

     total energy              =     -15.82318941 Ry
     Harris-Foulkes estimate   =     -15.82319223 Ry
     estimated scf accuracy    <       0.00000524 Ry

     iteration #  8     ecut=    30.00 Ry     beta= 0.50
     Davidson diagonalization with overlap
     ethr =  6.55E-08,  avg # of iterations =  3.3

     total cpu time spent up to now is        0.9 secs

     total energy              =     -15.82319167 Ry
     Harris-Foulkes estimate   =     -15.82319284 Ry
     estimated scf accuracy    <       0.00000341 Ry

     iteration #  9     ecut=    30.00 Ry     beta= 0.50
     Davidson diagonalization with overlap
     ethr =  4.27E-08,  avg # of iterations =  1.0

     total cpu time spent up to now is        1.0 secs

     total energy              =     -15.82319128 Ry
     Harris-Foulkes estimate   =     -15.82319179 Ry
     estimated scf accuracy    <       0.00000102 Ry

     iteration # 10     ecut=    30.00 Ry     beta= 0.50
     Davidson diagonalization with overlap
     ethr =  1.27E-08,  avg # of iterations =  1.9

     total cpu time spent up to now is        1.1 secs

     End of self-consistent calculation

          k = 0.0000 0.0000 0.0000 (   561 PWs)   bands (ev):

    -5.7934   8.4606  10.2336  11.5158

          k = 0.1768 0.1768-0.1768 (   580 PWs)   bands (ev):

    -4.8293   3.7985   8.3281   9.5021

          k =-0.3536-0.3536 0.3536 (   580 PWs)   bands (ev):

    -2.5756  -0.6127   7.5346   8.8466

          k = 0.3536 0.0000 0.0000 (   576 PWs)   bands (ev):

    -4.5356   4.6984   7.0440   7.4229

          k =-0.1768-0.5303 0.5303 (   584 PWs)   bands (ev):

    -2.3103   0.4210   5.0333   6.6193

          k = 0.0000-0.3536 0.3536 (   590 PWs)   bands (ev):

    -3.3731   2.3309   4.1536   8.0016

          k =-0.7071 0.0000 0.0000 (   588 PWs)   bands (ev):

    -0.7706  -0.7706   5.6712   5.6712

          k =-0.7071 0.3536 0.0000 (   604 PWs)   bands (ev):

    -1.1288   0.3040   3.6076   4.4290

          k = 0.1768-0.1768-0.1768 (   580 PWs)   bands (ev):

    -4.8987   4.7171   7.6202   9.4726

          k =-0.3536 0.3536 0.3536 (   580 PWs)   bands (ev):

    -3.2243   0.7708   7.0522   8.9164

          k = 0.0000 0.0000 0.3536 (   576 PWs)   bands (ev):

    -4.5450   5.3620   6.2583   7.3557

          k =-0.5303 0.1768 0.5303 (   584 PWs)   bands (ev):

    -2.7114   1.7726   3.9747   6.7414

          k = 0.5303 0.5303-0.1768 (   584 PWs)   bands (ev):

    -2.4135   0.8499   4.2238   6.9167

          k =-0.5303 0.5303 0.1768 (   584 PWs)   bands (ev):

    -2.7285   1.6216   5.0360   5.8266

          k = 0.3536 0.3536 0.0000 (   590 PWs)   bands (ev):

    -3.1715   1.4158   4.3847   8.5055

          k =-0.3536 0.3536 0.0000 (   590 PWs)   bands (ev):

    -3.5375   3.3734   4.1692   6.9246

          k = 0.0000 0.0000-0.7071 (   588 PWs)   bands (ev):

    -1.5209   0.2989   4.9852   5.8618

          k = 0.7071-0.0000 0.3536 (   604 PWs)   bands (ev):

    -0.5267  -0.5266   4.1506   4.1507

     highest occupied level (ev):    11.5158

!    total energy              =     -15.82319139 Ry
     Harris-Foulkes estimate   =     -15.82319140 Ry
     estimated scf accuracy    <       0.00000002 Ry

     The total energy is the sum of the following terms:

     one-electron contribution =       6.52780758 Ry
     hartree contribution      =       0.88763381 Ry
     xc contribution           =      -5.06382341 Ry
     ewald contribution        =     -18.17480936 Ry

     convergence has been achieved in  10 iterations

     Forces acting on atoms (cartesian axes, Ry/au):

     atom    1 type  1   force =     0.00000000   -0.00000000   -0.21714254
     atom    2 type  1   force =    -0.00000000    0.00000000    0.21714254

     Total force =     0.307086     Total SCF correction =     0.000088


     Computing stress (Cartesian axis) and pressure

          total   stress  (Ry/bohr**3)                   (kbar)     P=  590.32
   0.00427615   0.00220525   0.00000000        629.04    324.40      0.00
   0.00220525   0.00427615  -0.00000000        324.40    629.04     -0.00
   0.00000000  -0.00000000   0.00348652          0.00     -0.00    512.89


     init_run     :      0.09s CPU      0.09s WALL (       1 calls)
     electrons    :      0.97s CPU      1.00s WALL (       1 calls)
     forces       :      0.01s CPU      0.01s WALL (       1 calls)
     stress       :      0.04s CPU      0.04s WALL (       1 calls)

     Called by init_run:
     wfcinit      :      0.06s CPU      0.07s WALL (       1 calls)
     potinit      :      0.00s CPU      0.00s WALL (       1 calls)
     hinit0       :      0.02s CPU      0.02s WALL (       1 calls)

     Called by electrons:
     c_bands      :      0.78s CPU      0.81s WALL (      11 calls)
     sum_band     :      0.16s CPU      0.16s WALL (      11 calls)
     v_of_rho     :      0.01s CPU      0.01s WALL (      11 calls)
     mix_rho      :      0.01s CPU      0.01s WALL (      11 calls)

     Called by c_bands:
     init_us_2    :      0.05s CPU      0.05s WALL (     450 calls)
     cegterg      :      0.74s CPU      0.76s WALL (     198 calls)

     Called by sum_band:

     Called by *egterg:
     h_psi        :      0.67s CPU      0.70s WALL (     567 calls)
     g_psi        :      0.01s CPU      0.01s WALL (     351 calls)
     cdiaghg      :      0.03s CPU      0.03s WALL (     531 calls)

     Called by h_psi:
     h_psi:pot    :      0.67s CPU      0.69s WALL (     567 calls)
     h_psi:calbec :      0.02s CPU      0.02s WALL (     567 calls)
     vloc_psi     :      0.62s CPU      0.64s WALL (     567 calls)
     add_vuspsi   :      0.02s CPU      0.02s WALL (     567 calls)

     General routines
     calbec       :      0.03s CPU      0.03s WALL (     657 calls)
     fft          :      0.02s CPU      0.02s WALL (      38 calls)
     ffts         :      0.00s CPU      0.00s WALL (      11 calls)
     fftw         :      0.62s CPU      0.64s WALL (    4984 calls)

     Parallel routines

     PWSCF        :      1.14s CPU      1.17s WALL


   This run was terminated on:   0:38: 0   7Oct2020            

=------------------------------------------------------------------------------=
   JOB DONE.
=------------------------------------------------------------------------------=
