
     Program PWSCF v.6.4.1 starts on  7Oct2020 at  2: 2: 6 

     This program is part of the open-source Quantum ESPRESSO suite
     for quantum simulation of materials; please cite
         "P. Giannozzi et al., J. Phys.:Condens. Matter 21 395502 (2009);
         "P. Giannozzi et al., J. Phys.:Condens. Matter 29 465901 (2017);
          URL http://www.quantum-espresso.org", 
     in publications or presentations arising from this work. More details at
     http://www.quantum-espresso.org/quote

     Parallel version (MPI), running on     1 processors

     MPI processes distributed on     1 nodes
     Waiting for input...
     Reading input from standard input
Warning: card &IONS ignored
Warning: card / ignored
Warning: card &CELL ignored
Warning: card / ignored

     Current dimensions of program PWSCF are:
     Max number of different atomic species (ntypx) = 10
     Max number of k-points (npk) =  40000
     Max angular momentum in pseudopotentials (lmaxx) =  3

     Subspace diagonalization in iterative solution of the eigenvalue problem:
     a serial algorithm will be used

     Message from routine setup:
     DEPRECATED: symmetry with ibrav=0, use correct ibrav instead

     G-vector sticks info
     --------------------
     sticks:   dense  smooth     PW     G-vecs:    dense   smooth      PW
     Sum         313     313    109                 3719     3719     725



     bravais-lattice index     =            0
     lattice parameter (alat)  =       7.5660  a.u.
     unit-cell volume          =     306.2608 (a.u.)^3
     number of atoms/cell      =            2
     number of atomic types    =            1
     number of electrons       =         8.00
     number of Kohn-Sham states=            4
     kinetic-energy cutoff     =      20.0000  Ry
     charge density cutoff     =      80.0000  Ry
     convergence threshold     =      1.0E-07
     mixing beta               =       0.5000
     number of iterations used =            8  plain     mixing
     Exchange-correlation      = SLA PZ NOGX NOGC ( 1  1  0  0 0 0)

     celldm(1)=   7.566043  celldm(2)=   0.000000  celldm(3)=   0.000000
     celldm(4)=   0.000000  celldm(5)=   0.000000  celldm(6)=   0.000000

     crystal axes: (cart. coord. in units of alat)
               a(1) = (   0.000000   0.707107   0.707107 )  
               a(2) = (   0.707107   0.000000   0.707107 )  
               a(3) = (   0.707107   0.707107   0.000000 )  

     reciprocal axes: (cart. coord. in units 2 pi/alat)
               b(1) = ( -0.707107  0.707107  0.707107 )  
               b(2) = (  0.707107 -0.707107  0.707107 )  
               b(3) = (  0.707107  0.707107 -0.707107 )  


     PseudoPot. # 1 for Ge read from file:
     /home/modeler/qe_pseudo/Ge.pz-bhs.UPF
     MD5 check sum: 4f8fee77de72fb640d24dcbf01bda005
     Pseudo is Norm-conserving, Zval =  4.0
     Generated by new atomic code, or converted to UPF format
     Using radial grid of  291 points,  2 beta functions with: 
                l(1) =   0
                l(2) =   1

     atomic species   valence    mass     pseudopotential
        Ge             4.00    72.63000     Ge( 1.00)

     48 Sym. Ops., with inversion, found (24 have fractional translation)



   Cartesian axes

     site n.     atom                  positions (alat units)
         1           Ge  tau(   1) = (   0.0000000   0.0000000   0.0000000  )
         2           Ge  tau(   2) = (   0.3535536   0.3535536   0.3535536  )

     number of k points=     8
                       cart. coord. in units 2pi/alat
        k(    1) = (   0.0000000   0.0000000   0.0000000), wk =   0.0312500
        k(    2) = (   0.1767767   0.1767767  -0.1767767), wk =   0.2500000
        k(    3) = (  -0.3535534  -0.3535534   0.3535534), wk =   0.1250000
        k(    4) = (   0.3535534   0.0000000   0.0000000), wk =   0.1875000
        k(    5) = (  -0.1767767  -0.5303301   0.5303301), wk =   0.7500000
        k(    6) = (   0.0000000  -0.3535534   0.3535534), wk =   0.3750000
        k(    7) = (  -0.7071068   0.0000000   0.0000000), wk =   0.0937500
        k(    8) = (  -0.7071068   0.3535534   0.0000000), wk =   0.1875000

     Dense  grid:     3719 G-vectors     FFT dimensions: (  24,  24,  24)

     Estimated max dynamical RAM per process >       3.12 MB

     Initial potential from superposition of free atoms

     starting charge    6.99990, renormalised to    8.00000
     Starting wfcs are    8 randomized atomic wfcs

     total cpu time spent up to now is        0.1 secs

     Self-consistent Calculation

     iteration #  1     ecut=    20.00 Ry     beta= 0.50
     Davidson diagonalization with overlap
     ethr =  1.00E-02,  avg # of iterations =  1.2

     Threshold (ethr) on eigenvalues was too large:
     Diagonalizing with lowered threshold

     Davidson diagonalization with overlap
     ethr =  3.21E-04,  avg # of iterations =  2.6

     total cpu time spent up to now is        0.2 secs

     total energy              =     -15.99396151 Ry
     Harris-Foulkes estimate   =     -15.99780765 Ry
     estimated scf accuracy    <       0.02723276 Ry

     iteration #  2     ecut=    20.00 Ry     beta= 0.50
     Davidson diagonalization with overlap
     ethr =  3.40E-04,  avg # of iterations =  1.0

     total cpu time spent up to now is        0.2 secs

     total energy              =     -15.99284778 Ry
     Harris-Foulkes estimate   =     -15.99408353 Ry
     estimated scf accuracy    <       0.00652519 Ry

     iteration #  3     ecut=    20.00 Ry     beta= 0.50
     Davidson diagonalization with overlap
     ethr =  8.16E-05,  avg # of iterations =  1.0

     total cpu time spent up to now is        0.2 secs

     total energy              =     -15.99293014 Ry
     Harris-Foulkes estimate   =     -15.99293382 Ry
     estimated scf accuracy    <       0.00000732 Ry

     iteration #  4     ecut=    20.00 Ry     beta= 0.50
     Davidson diagonalization with overlap
     ethr =  9.15E-08,  avg # of iterations =  4.9

     total cpu time spent up to now is        0.3 secs

     total energy              =     -15.99296016 Ry
     Harris-Foulkes estimate   =     -15.99296030 Ry
     estimated scf accuracy    <       0.00000051 Ry

     iteration #  5     ecut=    20.00 Ry     beta= 0.50
     Davidson diagonalization with overlap
     ethr =  6.32E-09,  avg # of iterations =  2.1

     total cpu time spent up to now is        0.3 secs

     total energy              =     -15.99296020 Ry
     Harris-Foulkes estimate   =     -15.99296025 Ry
     estimated scf accuracy    <       0.00000010 Ry

     iteration #  6     ecut=    20.00 Ry     beta= 0.50
     Davidson diagonalization with overlap
     ethr =  1.29E-09,  avg # of iterations =  2.4

     total cpu time spent up to now is        0.4 secs

     End of self-consistent calculation

          k = 0.0000 0.0000 0.0000 (   459 PWs)   bands (ev):

    -7.1306   5.4094   5.4094   5.4094

          k = 0.1768 0.1768-0.1768 (   477 PWs)   bands (ev):

    -6.4391   0.7158   4.5631   4.5631

          k =-0.3536-0.3536 0.3536 (   464 PWs)   bands (ev):

    -5.1718  -2.1539   4.0655   4.0655

          k = 0.3536 0.0000 0.0000 (   456 PWs)   bands (ev):

    -6.1872   0.7114   3.4272   3.4272

          k =-0.1768-0.5303 0.5303 (   459 PWs)   bands (ev):

    -4.7769  -1.9593   1.7314   3.0782

          k = 0.0000-0.3536 0.3536 (   463 PWs)   bands (ev):

    -5.3621  -1.1089   1.5896   3.9590

          k =-0.7071 0.0000 0.0000 (   468 PWs)   bands (ev):

    -3.4396  -3.4396   2.4211   2.4211

          k =-0.7071 0.3536 0.0000 (   464 PWs)   bands (ev):

    -3.3453  -3.3452   1.5553   1.5553

     highest occupied level (ev):     5.4094

!    total energy              =     -15.99296022 Ry
     Harris-Foulkes estimate   =     -15.99296022 Ry
     estimated scf accuracy    <       0.00000002 Ry

     The total energy is the sum of the following terms:

     one-electron contribution =       3.56254569 Ry
     hartree contribution      =       1.21254760 Ry
     xc contribution           =      -4.65800450 Ry
     ewald contribution        =     -16.11004900 Ry

     convergence has been achieved in   6 iterations

     Forces acting on atoms (cartesian axes, Ry/au):

     atom    1 type  1   force =     0.00000000   -0.00000000   -0.00000000
     atom    2 type  1   force =    -0.00000000    0.00000000    0.00000000

     Total force =     0.000000     Total SCF correction =     0.000000


     Computing stress (Cartesian axis) and pressure

          total   stress  (Ry/bohr**3)                   (kbar)     P=  -19.59
  -0.00013318  -0.00000000   0.00000000        -19.59     -0.00      0.00
   0.00000000  -0.00013318  -0.00000000          0.00    -19.59     -0.00
   0.00000000   0.00000000  -0.00013318          0.00      0.00    -19.59


     init_run     :      0.05s CPU      0.05s WALL (       1 calls)
     electrons    :      0.30s CPU      0.31s WALL (       1 calls)
     forces       :      0.00s CPU      0.00s WALL (       1 calls)
     stress       :      0.02s CPU      0.02s WALL (       1 calls)

     Called by init_run:
     wfcinit      :      0.03s CPU      0.03s WALL (       1 calls)
     potinit      :      0.00s CPU      0.00s WALL (       1 calls)
     hinit0       :      0.02s CPU      0.02s WALL (       1 calls)

     Called by electrons:
     c_bands      :      0.24s CPU      0.24s WALL (       7 calls)
     sum_band     :      0.05s CPU      0.05s WALL (       7 calls)
     v_of_rho     :      0.01s CPU      0.01s WALL (       7 calls)
     mix_rho      :      0.00s CPU      0.00s WALL (       7 calls)

     Called by c_bands:
     init_us_2    :      0.01s CPU      0.01s WALL (     136 calls)
     cegterg      :      0.23s CPU      0.23s WALL (      56 calls)

     Called by sum_band:

     Called by *egterg:
     h_psi        :      0.22s CPU      0.22s WALL (     186 calls)
     g_psi        :      0.00s CPU      0.00s WALL (     122 calls)
     cdiaghg      :      0.01s CPU      0.01s WALL (     170 calls)

     Called by h_psi:
     h_psi:pot    :      0.22s CPU      0.22s WALL (     186 calls)
     h_psi:calbec :      0.01s CPU      0.01s WALL (     186 calls)
     vloc_psi     :      0.20s CPU      0.21s WALL (     186 calls)
     add_vuspsi   :      0.01s CPU      0.01s WALL (     186 calls)

     General routines
     calbec       :      0.01s CPU      0.01s WALL (     226 calls)
     fft          :      0.02s CPU      0.02s WALL (      26 calls)
     ffts         :      0.00s CPU      0.00s WALL (       7 calls)
     fftw         :      0.20s CPU      0.20s WALL (    1594 calls)

     Parallel routines

     PWSCF        :      0.41s CPU      0.41s WALL


   This run was terminated on:   2: 2: 6   7Oct2020            

=------------------------------------------------------------------------------=
   JOB DONE.
=------------------------------------------------------------------------------=
