
     Program PWSCF v.6.4.1 starts on  7Oct2020 at  0:37:57 

     This program is part of the open-source Quantum ESPRESSO suite
     for quantum simulation of materials; please cite
         "P. Giannozzi et al., J. Phys.:Condens. Matter 21 395502 (2009);
         "P. Giannozzi et al., J. Phys.:Condens. Matter 29 465901 (2017);
          URL http://www.quantum-espresso.org", 
     in publications or presentations arising from this work. More details at
     http://www.quantum-espresso.org/quote

     Parallel version (MPI), running on     1 processors

     MPI processes distributed on     1 nodes
     Waiting for input...
     Reading input from standard input
Warning: card &IONS ignored
Warning: card / ignored
Warning: card &CELL ignored
Warning: card / ignored

     Current dimensions of program PWSCF are:
     Max number of different atomic species (ntypx) = 10
     Max number of k-points (npk) =  40000
     Max angular momentum in pseudopotentials (lmaxx) =  3

     Subspace diagonalization in iterative solution of the eigenvalue problem:
     a serial algorithm will be used

     Message from routine setup:
     DEPRECATED: symmetry with ibrav=0, use correct ibrav instead

     G-vector sticks info
     --------------------
     sticks:   dense  smooth     PW     G-vecs:    dense   smooth      PW
     Sum         313     313     97                 3527     3527     645



     bravais-lattice index     =            0
     lattice parameter (alat)  =       6.6812  a.u.
     unit-cell volume          =     210.8855 (a.u.)^3
     number of atoms/cell      =            2
     number of atomic types    =            1
     number of electrons       =         8.00
     number of Kohn-Sham states=            4
     kinetic-energy cutoff     =      25.0000  Ry
     charge density cutoff     =     100.0000  Ry
     convergence threshold     =      1.0E-07
     mixing beta               =       0.5000
     number of iterations used =            8  plain     mixing
     Exchange-correlation      = SLA PZ NOGX NOGC ( 1  1  0  0 0 0)

     celldm(1)=   6.681191  celldm(2)=   0.000000  celldm(3)=   0.000000
     celldm(4)=   0.000000  celldm(5)=   0.000000  celldm(6)=   0.000000

     crystal axes: (cart. coord. in units of alat)
               a(1) = (   0.000000   0.707107   0.707107 )  
               a(2) = (   0.707107   0.000000   0.707107 )  
               a(3) = (   0.707107   0.707107   0.000000 )  

     reciprocal axes: (cart. coord. in units 2 pi/alat)
               b(1) = ( -0.707107  0.707107  0.707107 )  
               b(2) = (  0.707107 -0.707107  0.707107 )  
               b(3) = (  0.707107  0.707107 -0.707107 )  


     PseudoPot. # 1 for Ge read from file:
     /home/modeler/qe_pseudo/Ge.pz-bhs.UPF
     MD5 check sum: 4f8fee77de72fb640d24dcbf01bda005
     Pseudo is Norm-conserving, Zval =  4.0
     Generated by new atomic code, or converted to UPF format
     Using radial grid of  291 points,  2 beta functions with: 
                l(1) =   0
                l(2) =   1

     atomic species   valence    mass     pseudopotential
        Ge             4.00    72.63000     Ge( 1.00)

      4 Sym. Ops. (no inversion) found



   Cartesian axes

     site n.     atom                  positions (alat units)
         1           Ge  tau(   1) = (   0.0000000   0.0000000   0.0707107  )
         2           Ge  tau(   2) = (   0.3535534   0.3535534   0.3535534  )

     number of k points=    18
                       cart. coord. in units 2pi/alat
        k(    1) = (   0.0000000   0.0000000   0.0000000), wk =   0.0312500
        k(    2) = (   0.1767767   0.1767767  -0.1767767), wk =   0.1250000
        k(    3) = (  -0.3535534  -0.3535534   0.3535534), wk =   0.0625000
        k(    4) = (   0.3535534   0.0000000   0.0000000), wk =   0.1250000
        k(    5) = (  -0.1767767  -0.5303301   0.5303301), wk =   0.2500000
        k(    6) = (   0.0000000  -0.3535534   0.3535534), wk =   0.2500000
        k(    7) = (  -0.7071068   0.0000000   0.0000000), wk =   0.0625000
        k(    8) = (  -0.7071068   0.3535534   0.0000000), wk =   0.1250000
        k(    9) = (   0.1767767  -0.1767767  -0.1767767), wk =   0.1250000
        k(   10) = (  -0.3535534   0.3535534   0.3535534), wk =   0.0625000
        k(   11) = (   0.0000000   0.0000000   0.3535534), wk =   0.0625000
        k(   12) = (  -0.5303301   0.1767767   0.5303301), wk =   0.2500000
        k(   13) = (   0.5303301   0.5303301  -0.1767767), wk =   0.1250000
        k(   14) = (  -0.5303301   0.5303301   0.1767767), wk =   0.1250000
        k(   15) = (   0.3535534   0.3535534   0.0000000), wk =   0.0625000
        k(   16) = (  -0.3535534   0.3535534   0.0000000), wk =   0.0625000
        k(   17) = (   0.0000000   0.0000000  -0.7071068), wk =   0.0312500
        k(   18) = (   0.7071068  -0.0000000   0.3535534), wk =   0.0625000

     Dense  grid:     3527 G-vectors     FFT dimensions: (  24,  24,  24)

     Estimated max dynamical RAM per process >       3.29 MB

     Initial potential from superposition of free atoms

     starting charge    6.99990, renormalised to    8.00000
     Starting wfcs are    8 randomized atomic wfcs

     total cpu time spent up to now is        0.1 secs

     Self-consistent Calculation

     iteration #  1     ecut=    25.00 Ry     beta= 0.50
     Davidson diagonalization with overlap
     ethr =  1.00E-02,  avg # of iterations =  1.6

     Threshold (ethr) on eigenvalues was too large:
     Diagonalizing with lowered threshold

     Davidson diagonalization with overlap
     ethr =  3.12E-04,  avg # of iterations =  2.4

     total cpu time spent up to now is        0.3 secs

     total energy              =     -15.82275793 Ry
     Harris-Foulkes estimate   =     -15.82716436 Ry
     estimated scf accuracy    <       0.02917521 Ry

     iteration #  2     ecut=    25.00 Ry     beta= 0.50
     Davidson diagonalization with overlap
     ethr =  3.65E-04,  avg # of iterations =  1.0

     total cpu time spent up to now is        0.4 secs

     total energy              =     -15.82192082 Ry
     Harris-Foulkes estimate   =     -15.82303394 Ry
     estimated scf accuracy    <       0.00634770 Ry

     iteration #  3     ecut=    25.00 Ry     beta= 0.50
     Davidson diagonalization with overlap
     ethr =  7.93E-05,  avg # of iterations =  1.0

     total cpu time spent up to now is        0.4 secs

     total energy              =     -15.82208629 Ry
     Harris-Foulkes estimate   =     -15.82210482 Ry
     estimated scf accuracy    <       0.00004140 Ry

     iteration #  4     ecut=    25.00 Ry     beta= 0.50
     Davidson diagonalization with overlap
     c_bands:  1 eigenvalues not converged
     ethr =  5.17E-07,  avg # of iterations =  3.9

     total cpu time spent up to now is        0.6 secs

     total energy              =     -15.82265904 Ry
     Harris-Foulkes estimate   =     -15.82266057 Ry
     estimated scf accuracy    <       0.00008123 Ry

     iteration #  5     ecut=    25.00 Ry     beta= 0.50
     Davidson diagonalization with overlap
     ethr =  5.17E-07,  avg # of iterations =  1.5

     total cpu time spent up to now is        0.6 secs

     total energy              =     -15.82265888 Ry
     Harris-Foulkes estimate   =     -15.82265966 Ry
     estimated scf accuracy    <       0.00007763 Ry

     iteration #  6     ecut=    25.00 Ry     beta= 0.50
     Davidson diagonalization with overlap
     ethr =  5.17E-07,  avg # of iterations =  1.0

     total cpu time spent up to now is        0.7 secs

     total energy              =     -15.82263046 Ry
     Harris-Foulkes estimate   =     -15.82265891 Ry
     estimated scf accuracy    <       0.00007549 Ry

     iteration #  7     ecut=    25.00 Ry     beta= 0.50
     Davidson diagonalization with overlap
     ethr =  5.17E-07,  avg # of iterations =  2.2

     total cpu time spent up to now is        0.8 secs

     total energy              =     -15.82263019 Ry
     Harris-Foulkes estimate   =     -15.82263611 Ry
     estimated scf accuracy    <       0.00001573 Ry

     iteration #  8     ecut=    25.00 Ry     beta= 0.50
     Davidson diagonalization with overlap
     ethr =  1.97E-07,  avg # of iterations =  1.8

     total cpu time spent up to now is        0.9 secs

     total energy              =     -15.82263050 Ry
     Harris-Foulkes estimate   =     -15.82263127 Ry
     estimated scf accuracy    <       0.00000262 Ry

     iteration #  9     ecut=    25.00 Ry     beta= 0.50
     Davidson diagonalization with overlap
     ethr =  3.28E-08,  avg # of iterations =  2.1

     total cpu time spent up to now is        0.9 secs

     total energy              =     -15.82263081 Ry
     Harris-Foulkes estimate   =     -15.82263081 Ry
     estimated scf accuracy    <       0.00000063 Ry

     iteration # 10     ecut=    25.00 Ry     beta= 0.50
     Davidson diagonalization with overlap
     ethr =  7.90E-09,  avg # of iterations =  1.9

     total cpu time spent up to now is        1.0 secs

     total energy              =     -15.82263071 Ry
     Harris-Foulkes estimate   =     -15.82263086 Ry
     estimated scf accuracy    <       0.00000051 Ry

     iteration # 11     ecut=    25.00 Ry     beta= 0.50
     Davidson diagonalization with overlap
     ethr =  6.34E-09,  avg # of iterations =  2.2

     total cpu time spent up to now is        1.1 secs

     End of self-consistent calculation

          k = 0.0000 0.0000 0.0000 (   459 PWs)   bands (ev):

    -5.7928   8.4610  10.2333  11.5148

          k = 0.1768 0.1768-0.1768 (   450 PWs)   bands (ev):

    -4.8284   3.8002   8.3280   9.5016

          k =-0.3536-0.3536 0.3536 (   434 PWs)   bands (ev):

    -2.5741  -0.6110   7.5347   8.8460

          k = 0.3536 0.0000 0.0000 (   456 PWs)   bands (ev):

    -4.5346   4.7004   7.0438   7.4225

          k =-0.1768-0.5303 0.5303 (   447 PWs)   bands (ev):

    -2.3090   0.4230   5.0333   6.6191

          k = 0.0000-0.3536 0.3536 (   443 PWs)   bands (ev):

    -3.3716   2.3328   4.1540   8.0013

          k =-0.7071 0.0000 0.0000 (   444 PWs)   bands (ev):

    -0.7691  -0.7687   5.6707   5.6712

          k =-0.7071 0.3536 0.0000 (   444 PWs)   bands (ev):

    -1.1262   0.3052   3.6078   4.4288

          k = 0.1768-0.1768-0.1768 (   450 PWs)   bands (ev):

    -4.8976   4.7179   7.6206   9.4721

          k =-0.3536 0.3536 0.3536 (   434 PWs)   bands (ev):

    -3.2220   0.7710   7.0526   8.9159

          k = 0.0000 0.0000 0.3536 (   456 PWs)   bands (ev):

    -4.5439   5.3634   6.2585   7.3554

          k =-0.5303 0.1768 0.5303 (   447 PWs)   bands (ev):

    -2.7098   1.7735   3.9755   6.7412

          k = 0.5303 0.5303-0.1768 (   447 PWs)   bands (ev):

    -2.4119   0.8514   4.2245   6.9164

          k =-0.5303 0.5303 0.1768 (   447 PWs)   bands (ev):

    -2.7267   1.6224   5.0362   5.8269

          k = 0.3536 0.3536 0.0000 (   443 PWs)   bands (ev):

    -3.1704   1.4188   4.3846   8.5050

          k =-0.3536 0.3536 0.0000 (   443 PWs)   bands (ev):

    -3.5358   3.3741   4.1696   6.9249

          k = 0.0000 0.0000-0.7071 (   444 PWs)   bands (ev):

    -1.5182   0.2993   4.9854   5.8616

          k = 0.7071-0.0000 0.3536 (   444 PWs)   bands (ev):

    -0.5248  -0.5244   4.1504   4.1507

     highest occupied level (ev):    11.5148

!    total energy              =     -15.82263072 Ry
     Harris-Foulkes estimate   =     -15.82263077 Ry
     estimated scf accuracy    <       0.00000007 Ry

     The total energy is the sum of the following terms:

     one-electron contribution =       6.52852930 Ry
     hartree contribution      =       0.88739755 Ry
     xc contribution           =      -5.06374821 Ry
     ewald contribution        =     -18.17480936 Ry

     convergence has been achieved in  11 iterations

     Forces acting on atoms (cartesian axes, Ry/au):

     atom    1 type  1   force =     0.00000000    0.00000000   -0.21712332
     atom    2 type  1   force =     0.00000000    0.00000000    0.21712332

     Total force =     0.307059     Total SCF correction =     0.000116


     Computing stress (Cartesian axis) and pressure

          total   stress  (Ry/bohr**3)                   (kbar)     P=  588.78
   0.00426591   0.00220689  -0.00000000        627.54    324.64     -0.00
   0.00220689   0.00426591   0.00000000        324.64    627.54      0.00
  -0.00000000   0.00000000   0.00347557         -0.00      0.00    511.27


     init_run     :      0.08s CPU      0.09s WALL (       1 calls)
     electrons    :      0.97s CPU      0.99s WALL (       1 calls)
     forces       :      0.01s CPU      0.01s WALL (       1 calls)
     stress       :      0.03s CPU      0.03s WALL (       1 calls)

     Called by init_run:
     wfcinit      :      0.06s CPU      0.06s WALL (       1 calls)
     potinit      :      0.00s CPU      0.00s WALL (       1 calls)
     hinit0       :      0.02s CPU      0.02s WALL (       1 calls)

     Called by electrons:
     c_bands      :      0.79s CPU      0.80s WALL (      12 calls)
     sum_band     :      0.16s CPU      0.16s WALL (      12 calls)
     v_of_rho     :      0.01s CPU      0.01s WALL (      12 calls)
     mix_rho      :      0.01s CPU      0.01s WALL (      12 calls)

     Called by c_bands:
     init_us_2    :      0.04s CPU      0.04s WALL (     486 calls)
     cegterg      :      0.75s CPU      0.76s WALL (     216 calls)

     Called by sum_band:

     Called by *egterg:
     h_psi        :      0.69s CPU      0.71s WALL (     642 calls)
     g_psi        :      0.01s CPU      0.01s WALL (     408 calls)
     cdiaghg      :      0.03s CPU      0.03s WALL (     606 calls)

     Called by h_psi:
     h_psi:pot    :      0.69s CPU      0.70s WALL (     642 calls)
     h_psi:calbec :      0.02s CPU      0.02s WALL (     642 calls)
     vloc_psi     :      0.65s CPU      0.66s WALL (     642 calls)
     add_vuspsi   :      0.02s CPU      0.02s WALL (     642 calls)

     General routines
     calbec       :      0.02s CPU      0.02s WALL (     732 calls)
     fft          :      0.02s CPU      0.02s WALL (      41 calls)
     ffts         :      0.00s CPU      0.00s WALL (      12 calls)
     fftw         :      0.65s CPU      0.66s WALL (    5346 calls)

     Parallel routines

     PWSCF        :      1.12s CPU      1.14s WALL


   This run was terminated on:   0:37:58   7Oct2020            

=------------------------------------------------------------------------------=
   JOB DONE.
=------------------------------------------------------------------------------=
