
     Program PWSCF v.6.4.1 starts on  1Oct2020 at 21:23:55 

     This program is part of the open-source Quantum ESPRESSO suite
     for quantum simulation of materials; please cite
         "P. Giannozzi et al., J. Phys.:Condens. Matter 21 395502 (2009);
         "P. Giannozzi et al., J. Phys.:Condens. Matter 29 465901 (2017);
          URL http://www.quantum-espresso.org", 
     in publications or presentations arising from this work. More details at
     http://www.quantum-espresso.org/quote

     Parallel version (MPI), running on     1 processors

     MPI processes distributed on     1 nodes
     Waiting for input...
     Reading input from standard input
Warning: card &IONS ignored
Warning: card / ignored
Warning: card &CELL ignored
Warning: card / ignored

     Current dimensions of program PWSCF are:
     Max number of different atomic species (ntypx) = 10
     Max number of k-points (npk) =  40000
     Max angular momentum in pseudopotentials (lmaxx) =  3

     Subspace diagonalization in iterative solution of the eigenvalue problem:
     a serial algorithm will be used

     Message from routine setup:
     DEPRECATED: symmetry with ibrav=0, use correct ibrav instead

     G-vector sticks info
     --------------------
     sticks:   dense  smooth     PW     G-vecs:    dense   smooth      PW
     Sum         187     187     61                 1639     1639     339



     bravais-lattice index     =            0
     lattice parameter (alat)  =       6.6812  a.u.
     unit-cell volume          =     210.8855 (a.u.)^3
     number of atoms/cell      =            2
     number of atomic types    =            1
     number of electrons       =         8.00
     number of Kohn-Sham states=            4
     kinetic-energy cutoff     =      15.0000  Ry
     charge density cutoff     =      60.0000  Ry
     convergence threshold     =      1.0E-07
     mixing beta               =       0.5000
     number of iterations used =            8  plain     mixing
     Exchange-correlation      = SLA PZ NOGX NOGC ( 1  1  0  0 0 0)

     celldm(1)=   6.681191  celldm(2)=   0.000000  celldm(3)=   0.000000
     celldm(4)=   0.000000  celldm(5)=   0.000000  celldm(6)=   0.000000

     crystal axes: (cart. coord. in units of alat)
               a(1) = (   0.000000   0.707107   0.707107 )  
               a(2) = (   0.707107   0.000000   0.707107 )  
               a(3) = (   0.707107   0.707107   0.000000 )  

     reciprocal axes: (cart. coord. in units 2 pi/alat)
               b(1) = ( -0.707107  0.707107  0.707107 )  
               b(2) = (  0.707107 -0.707107  0.707107 )  
               b(3) = (  0.707107  0.707107 -0.707107 )  


     PseudoPot. # 1 for Ge read from file:
     /home/modeler/qe_pseudo/Ge.pz-bhs.UPF
     MD5 check sum: 4f8fee77de72fb640d24dcbf01bda005
     Pseudo is Norm-conserving, Zval =  4.0
     Generated by new atomic code, or converted to UPF format
     Using radial grid of  291 points,  2 beta functions with: 
                l(1) =   0
                l(2) =   1

     atomic species   valence    mass     pseudopotential
        Ge             4.00    72.63000     Ge( 1.00)

     48 Sym. Ops., with inversion, found (24 have fractional translation)



   Cartesian axes

     site n.     atom                  positions (alat units)
         1           Ge  tau(   1) = (   0.0000000   0.0000000   0.0000000  )
         2           Ge  tau(   2) = (   0.3535534   0.3535534   0.3535534  )

     number of k points=     8
                       cart. coord. in units 2pi/alat
        k(    1) = (   0.0000000   0.0000000   0.0000000), wk =   0.0312500
        k(    2) = (   0.1767767   0.1767767  -0.1767767), wk =   0.2500000
        k(    3) = (  -0.3535534  -0.3535534   0.3535534), wk =   0.1250000
        k(    4) = (   0.3535534   0.0000000   0.0000000), wk =   0.1875000
        k(    5) = (  -0.1767767  -0.5303301   0.5303301), wk =   0.7500000
        k(    6) = (   0.0000000  -0.3535534   0.3535534), wk =   0.3750000
        k(    7) = (  -0.7071068   0.0000000   0.0000000), wk =   0.0937500
        k(    8) = (  -0.7071068   0.3535534   0.0000000), wk =   0.1875000

     Dense  grid:     1639 G-vectors     FFT dimensions: (  20,  20,  20)

     Estimated max dynamical RAM per process >       1.54 MB

     Initial potential from superposition of free atoms

     starting charge    6.99990, renormalised to    8.00000
     Starting wfcs are    8 randomized atomic wfcs

     total cpu time spent up to now is        0.0 secs

     Self-consistent Calculation

     iteration #  1     ecut=    15.00 Ry     beta= 0.50
     Davidson diagonalization with overlap
     ethr =  1.00E-02,  avg # of iterations =  1.6

     Threshold (ethr) on eigenvalues was too large:
     Diagonalizing with lowered threshold

     Davidson diagonalization with overlap
     ethr =  3.01E-04,  avg # of iterations =  2.9

     total cpu time spent up to now is        0.1 secs

     total energy              =     -15.86743330 Ry
     Harris-Foulkes estimate   =     -15.87163386 Ry
     estimated scf accuracy    <       0.02978305 Ry

     iteration #  2     ecut=    15.00 Ry     beta= 0.50
     Davidson diagonalization with overlap
     ethr =  3.72E-04,  avg # of iterations =  1.0

     total cpu time spent up to now is        0.1 secs

     total energy              =     -15.86661533 Ry
     Harris-Foulkes estimate   =     -15.86769113 Ry
     estimated scf accuracy    <       0.00649914 Ry

     iteration #  3     ecut=    15.00 Ry     beta= 0.50
     Davidson diagonalization with overlap
     ethr =  8.12E-05,  avg # of iterations =  1.0

     total cpu time spent up to now is        0.1 secs

     total energy              =     -15.86676671 Ry
     Harris-Foulkes estimate   =     -15.86678464 Ry
     estimated scf accuracy    <       0.00004083 Ry

     iteration #  4     ecut=    15.00 Ry     beta= 0.50
     Davidson diagonalization with overlap
     ethr =  5.10E-07,  avg # of iterations =  3.0

     total cpu time spent up to now is        0.1 secs

     total energy              =     -15.86679282 Ry
     Harris-Foulkes estimate   =     -15.86679369 Ry
     estimated scf accuracy    <       0.00000203 Ry

     iteration #  5     ecut=    15.00 Ry     beta= 0.50
     Davidson diagonalization with overlap
     ethr =  2.54E-08,  avg # of iterations =  1.6

     total cpu time spent up to now is        0.1 secs

     End of self-consistent calculation

          k = 0.0000 0.0000 0.0000 (   181 PWs)   bands (ev):

    -5.7149  10.0076  10.0076  10.0076

          k = 0.1768 0.1768-0.1768 (   205 PWs)   bands (ev):

    -4.7750   4.3562   8.7244   8.7244

          k =-0.3536-0.3536 0.3536 (   210 PWs)   bands (ev):

    -2.8119   0.1315   8.0531   8.0531

          k = 0.3536 0.0000 0.0000 (   202 PWs)   bands (ev):

    -4.4448   5.2484   6.9641   6.9641

          k =-0.1768-0.5303 0.5303 (   211 PWs)   bands (ev):

    -2.3944   1.1629   4.6165   6.4981

          k = 0.0000-0.3536 0.3536 (   210 PWs)   bands (ev):

    -3.2510   2.4207   4.2349   7.8387

          k =-0.7071 0.0000 0.0000 (   206 PWs)   bands (ev):

    -0.6106  -0.6106   5.5417   5.5417

          k =-0.7071 0.3536 0.0000 (   208 PWs)   bands (ev):

    -0.3415  -0.3415   4.0368   4.0368

     highest occupied level (ev):    10.0076

!    total energy              =     -15.86679302 Ry
     Harris-Foulkes estimate   =     -15.86679301 Ry
     estimated scf accuracy    <       0.00000006 Ry

     The total energy is the sum of the following terms:

     one-electron contribution =       6.55589785 Ry
     hartree contribution      =       0.88380506 Ry
     xc contribution           =      -5.06284307 Ry
     ewald contribution        =     -18.24365286 Ry

     convergence has been achieved in   5 iterations

     Forces acting on atoms (cartesian axes, Ry/au):

     atom    1 type  1   force =    -0.00000000    0.00000000    0.00000000
     atom    2 type  1   force =     0.00000000   -0.00000000   -0.00000000

     Total force =     0.000000     Total SCF correction =     0.000000


     Computing stress (Cartesian axis) and pressure

          total   stress  (Ry/bohr**3)                   (kbar)     P=  528.48
   0.00359252   0.00000000   0.00000000        528.48      0.00      0.00
   0.00000000   0.00359252   0.00000000          0.00    528.48      0.00
   0.00000000   0.00000000   0.00359252          0.00      0.00    528.48


     init_run     :      0.02s CPU      0.02s WALL (       1 calls)
     electrons    :      0.08s CPU      0.08s WALL (       1 calls)
     forces       :      0.00s CPU      0.00s WALL (       1 calls)
     stress       :      0.01s CPU      0.01s WALL (       1 calls)

     Called by init_run:
     wfcinit      :      0.01s CPU      0.01s WALL (       1 calls)
     potinit      :      0.00s CPU      0.00s WALL (       1 calls)
     hinit0       :      0.01s CPU      0.01s WALL (       1 calls)

     Called by electrons:
     c_bands      :      0.06s CPU      0.06s WALL (       6 calls)
     sum_band     :      0.01s CPU      0.01s WALL (       6 calls)
     v_of_rho     :      0.00s CPU      0.00s WALL (       6 calls)
     mix_rho      :      0.00s CPU      0.00s WALL (       6 calls)

     Called by c_bands:
     init_us_2    :      0.00s CPU      0.01s WALL (     120 calls)
     cegterg      :      0.05s CPU      0.06s WALL (      48 calls)

     Called by sum_band:

     Called by *egterg:
     h_psi        :      0.05s CPU      0.05s WALL (     145 calls)
     g_psi        :      0.00s CPU      0.00s WALL (      89 calls)
     cdiaghg      :      0.00s CPU      0.00s WALL (     129 calls)

     Called by h_psi:
     h_psi:pot    :      0.05s CPU      0.05s WALL (     145 calls)
     h_psi:calbec :      0.00s CPU      0.00s WALL (     145 calls)
     vloc_psi     :      0.04s CPU      0.04s WALL (     145 calls)
     add_vuspsi   :      0.00s CPU      0.00s WALL (     145 calls)

     General routines
     calbec       :      0.00s CPU      0.00s WALL (     185 calls)
     fft          :      0.00s CPU      0.00s WALL (      23 calls)
     ffts         :      0.00s CPU      0.00s WALL (       6 calls)
     fftw         :      0.03s CPU      0.03s WALL (    1284 calls)

     Parallel routines

     PWSCF        :      0.14s CPU      0.14s WALL


   This run was terminated on:  21:23:55   1Oct2020            

=------------------------------------------------------------------------------=
   JOB DONE.
=------------------------------------------------------------------------------=
