
     Program PWSCF v.6.4.1 starts on  7Oct2020 at  3:49:35 

     This program is part of the open-source Quantum ESPRESSO suite
     for quantum simulation of materials; please cite
         "P. Giannozzi et al., J. Phys.:Condens. Matter 21 395502 (2009);
         "P. Giannozzi et al., J. Phys.:Condens. Matter 29 465901 (2017);
          URL http://www.quantum-espresso.org", 
     in publications or presentations arising from this work. More details at
     http://www.quantum-espresso.org/quote

     Parallel version (MPI), running on     1 processors

     MPI processes distributed on     1 nodes
     Waiting for input...
     Reading input from standard input
Warning: card &IONS ignored
Warning: card / ignored
Warning: card &CELL ignored
Warning: card / ignored

     Current dimensions of program PWSCF are:
     Max number of different atomic species (ntypx) = 10
     Max number of k-points (npk) =  40000
     Max angular momentum in pseudopotentials (lmaxx) =  3

     Subspace diagonalization in iterative solution of the eigenvalue problem:
     a serial algorithm will be used

     Message from routine setup:
     DEPRECATED: symmetry with ibrav=0, use correct ibrav instead

     G-vector sticks info
     --------------------
     sticks:   dense  smooth     PW     G-vecs:    dense   smooth      PW
     Sum         511     511    163                 7727     7727    1363



     bravais-lattice index     =            0
     lattice parameter (alat)  =       6.8148  a.u.
     unit-cell volume          =     223.7933 (a.u.)^3
     number of atoms/cell      =            2
     number of atomic types    =            1
     number of electrons       =         8.00
     number of Kohn-Sham states=            4
     kinetic-energy cutoff     =      40.0000  Ry
     charge density cutoff     =     160.0000  Ry
     convergence threshold     =      1.0E-07
     mixing beta               =       0.5000
     number of iterations used =            8  plain     mixing
     Exchange-correlation      = SLA PZ NOGX NOGC ( 1  1  0  0 0 0)

     celldm(1)=   6.814815  celldm(2)=   0.000000  celldm(3)=   0.000000
     celldm(4)=   0.000000  celldm(5)=   0.000000  celldm(6)=   0.000000

     crystal axes: (cart. coord. in units of alat)
               a(1) = (   0.000000   0.707107   0.707107 )  
               a(2) = (   0.707107   0.000000   0.707107 )  
               a(3) = (   0.707107   0.707107   0.000000 )  

     reciprocal axes: (cart. coord. in units 2 pi/alat)
               b(1) = ( -0.707107  0.707107  0.707107 )  
               b(2) = (  0.707107 -0.707107  0.707107 )  
               b(3) = (  0.707107  0.707107 -0.707107 )  


     PseudoPot. # 1 for Ge read from file:
     /home/modeler/qe_pseudo/Ge.pz-bhs.UPF
     MD5 check sum: 4f8fee77de72fb640d24dcbf01bda005
     Pseudo is Norm-conserving, Zval =  4.0
     Generated by new atomic code, or converted to UPF format
     Using radial grid of  291 points,  2 beta functions with: 
                l(1) =   0
                l(2) =   1

     atomic species   valence    mass     pseudopotential
        Ge             4.00    72.63000     Ge( 1.00)

     48 Sym. Ops., with inversion, found (24 have fractional translation)



   Cartesian axes

     site n.     atom                  positions (alat units)
         1           Ge  tau(   1) = (   0.0000000   0.0000000   0.0000000  )
         2           Ge  tau(   2) = (   0.3535534   0.3535534   0.3535534  )

     number of k points=    10
                       cart. coord. in units 2pi/alat
        k(    1) = (   0.0000000   0.0000000   0.0000000), wk =   0.0160000
        k(    2) = (   0.1414214   0.1414214  -0.1414214), wk =   0.1280000
        k(    3) = (   0.2828427   0.2828427  -0.2828427), wk =   0.1280000
        k(    4) = (   0.2828427   0.0000000   0.0000000), wk =   0.0960000
        k(    5) = (   0.4242641   0.1414214  -0.1414214), wk =   0.3840000
        k(    6) = (  -0.1414214  -0.4242641   0.4242641), wk =   0.3840000
        k(    7) = (   0.0000000  -0.2828427   0.2828427), wk =   0.1920000
        k(    8) = (   0.5656854   0.0000000   0.0000000), wk =   0.0960000
        k(    9) = (   0.0000000  -0.5656854   0.5656854), wk =   0.1920000
        k(   10) = (  -0.1414214  -0.4242641   0.7071068), wk =   0.3840000

     Dense  grid:     7727 G-vectors     FFT dimensions: (  32,  32,  32)

     Estimated max dynamical RAM per process >       6.79 MB

     Initial potential from superposition of free atoms

     starting charge    6.99990, renormalised to    8.00000
     Starting wfcs are    8 randomized atomic wfcs

     total cpu time spent up to now is        0.1 secs

     Self-consistent Calculation

     iteration #  1     ecut=    40.00 Ry     beta= 0.50
     Davidson diagonalization with overlap
     ethr =  1.00E-02,  avg # of iterations =  1.6

     Threshold (ethr) on eigenvalues was too large:
     Diagonalizing with lowered threshold

     Davidson diagonalization with overlap
     ethr =  2.70E-04,  avg # of iterations =  2.9

     total cpu time spent up to now is        0.3 secs

     total energy              =     -15.93153965 Ry
     Harris-Foulkes estimate   =     -15.93482920 Ry
     estimated scf accuracy    <       0.02600554 Ry

     iteration #  2     ecut=    40.00 Ry     beta= 0.50
     Davidson diagonalization with overlap
     ethr =  3.25E-04,  avg # of iterations =  1.0

     total cpu time spent up to now is        0.3 secs

     total energy              =     -15.93077476 Ry
     Harris-Foulkes estimate   =     -15.93169961 Ry
     estimated scf accuracy    <       0.00584227 Ry

     iteration #  3     ecut=    40.00 Ry     beta= 0.50
     Davidson diagonalization with overlap
     ethr =  7.30E-05,  avg # of iterations =  1.0

     total cpu time spent up to now is        0.4 secs

     total energy              =     -15.93086598 Ry
     Harris-Foulkes estimate   =     -15.93088261 Ry
     estimated scf accuracy    <       0.00003252 Ry

     iteration #  4     ecut=    40.00 Ry     beta= 0.50
     Davidson diagonalization with overlap
     ethr =  4.07E-07,  avg # of iterations =  2.9

     total cpu time spent up to now is        0.5 secs

     total energy              =     -15.93088432 Ry
     Harris-Foulkes estimate   =     -15.93088450 Ry
     estimated scf accuracy    <       0.00000043 Ry

     iteration #  5     ecut=    40.00 Ry     beta= 0.50
     Davidson diagonalization with overlap
     ethr =  5.40E-09,  avg # of iterations =  3.3

     total cpu time spent up to now is        0.6 secs

     End of self-consistent calculation

          k = 0.0000 0.0000 0.0000 (   941 PWs)   bands (ev):

    -5.9979   9.1019   9.1019   9.1019

          k = 0.1414 0.1414-0.1414 (   947 PWs)   bands (ev):

    -5.4207   4.9149   8.1805   8.1805

          k = 0.2828 0.2828-0.2828 (   951 PWs)   bands (ev):

    -3.8336   0.6309   7.3742   7.3742

          k = 0.2828 0.0000 0.0000 (   966 PWs)   bands (ev):

    -5.2220   5.5928   6.8442   6.8442

          k = 0.4243 0.1414-0.1414 (   956 PWs)   bands (ev):

    -3.9051   1.9526   5.2987   6.1254

          k =-0.1414-0.4243 0.4243 (   963 PWs)   bands (ev):

    -2.8263   0.1222   4.2056   6.5258

          k = 0.0000-0.2828 0.2828 (   953 PWs)   bands (ev):

    -4.4716   3.0567   4.7263   7.7919

          k = 0.5657 0.0000 0.0000 (   962 PWs)   bands (ev):

    -2.8834   0.9131   5.1501   5.1501

          k = 0.0000-0.5657 0.5657 (   959 PWs)   bands (ev):

    -1.3942  -0.6877   3.2786   5.3143

          k =-0.1414-0.4243 0.7071 (   952 PWs)   bands (ev):

    -2.3349   0.4249   3.4046   4.7220

     highest occupied level (ev):     9.1019

!    total energy              =     -15.93088457 Ry
     Harris-Foulkes estimate   =     -15.93088459 Ry
     estimated scf accuracy    <       0.00000006 Ry

     The total energy is the sum of the following terms:

     one-electron contribution =       6.02239708 Ry
     hartree contribution      =       0.92088869 Ry
     xc contribution           =      -4.98823617 Ry
     ewald contribution        =     -17.88593416 Ry

     convergence has been achieved in   5 iterations

     Forces acting on atoms (cartesian axes, Ry/au):

     atom    1 type  1   force =     0.00000000   -0.00000000    0.00000000
     atom    2 type  1   force =     0.00000000    0.00000000    0.00000000

     Total force =     0.000000     Total SCF correction =     0.000000


     Computing stress (Cartesian axis) and pressure

          total   stress  (Ry/bohr**3)                   (kbar)     P=  391.67
   0.00266252  -0.00000000   0.00000000        391.67     -0.00      0.00
  -0.00000000   0.00266252  -0.00000000         -0.00    391.67     -0.00
   0.00000000  -0.00000000   0.00266252          0.00     -0.00    391.67


     init_run     :      0.08s CPU      0.08s WALL (       1 calls)
     electrons    :      0.43s CPU      0.46s WALL (       1 calls)
     forces       :      0.00s CPU      0.01s WALL (       1 calls)
     stress       :      0.04s CPU      0.04s WALL (       1 calls)

     Called by init_run:
     wfcinit      :      0.05s CPU      0.05s WALL (       1 calls)
     potinit      :      0.00s CPU      0.00s WALL (       1 calls)
     hinit0       :      0.02s CPU      0.02s WALL (       1 calls)

     Called by electrons:
     c_bands      :      0.35s CPU      0.36s WALL (       6 calls)
     sum_band     :      0.06s CPU      0.08s WALL (       6 calls)
     v_of_rho     :      0.01s CPU      0.01s WALL (       6 calls)
     mix_rho      :      0.01s CPU      0.01s WALL (       6 calls)

     Called by c_bands:
     init_us_2    :      0.02s CPU      0.03s WALL (     150 calls)
     cegterg      :      0.33s CPU      0.34s WALL (      60 calls)

     Called by sum_band:

     Called by *egterg:
     h_psi        :      0.31s CPU      0.32s WALL (     197 calls)
     g_psi        :      0.00s CPU      0.00s WALL (     127 calls)
     cdiaghg      :      0.01s CPU      0.01s WALL (     177 calls)

     Called by h_psi:
     h_psi:pot    :      0.31s CPU      0.32s WALL (     197 calls)
     h_psi:calbec :      0.01s CPU      0.01s WALL (     197 calls)
     vloc_psi     :      0.28s CPU      0.29s WALL (     197 calls)
     add_vuspsi   :      0.01s CPU      0.01s WALL (     197 calls)

     General routines
     calbec       :      0.01s CPU      0.02s WALL (     247 calls)
     fft          :      0.01s CPU      0.01s WALL (      23 calls)
     ffts         :      0.00s CPU      0.00s WALL (       6 calls)
     fftw         :      0.23s CPU      0.25s WALL (    1676 calls)

     Parallel routines

     PWSCF        :      0.59s CPU      0.62s WALL


   This run was terminated on:   3:49:36   7Oct2020            

=------------------------------------------------------------------------------=
   JOB DONE.
=------------------------------------------------------------------------------=
