
     Program PWSCF v.6.4.1 starts on  2Oct2020 at  0:29:46 

     This program is part of the open-source Quantum ESPRESSO suite
     for quantum simulation of materials; please cite
         "P. Giannozzi et al., J. Phys.:Condens. Matter 21 395502 (2009);
         "P. Giannozzi et al., J. Phys.:Condens. Matter 29 465901 (2017);
          URL http://www.quantum-espresso.org", 
     in publications or presentations arising from this work. More details at
     http://www.quantum-espresso.org/quote

     Parallel version (MPI), running on     1 processors

     MPI processes distributed on     1 nodes
     Waiting for input...
     Reading input from standard input
Warning: card &IONS ignored
Warning: card / ignored
Warning: card &CELL ignored
Warning: card / ignored

     Current dimensions of program PWSCF are:
     Max number of different atomic species (ntypx) = 10
     Max number of k-points (npk) =  40000
     Max angular momentum in pseudopotentials (lmaxx) =  3

     Subspace diagonalization in iterative solution of the eigenvalue problem:
     a serial algorithm will be used

     Message from routine setup:
     DEPRECATED: symmetry with ibrav=0, use correct ibrav instead

     G-vector sticks info
     --------------------
     sticks:   dense  smooth     PW     G-vecs:    dense   smooth      PW
     Sum         121     121     43                  893      893     181



     bravais-lattice index     =            0
     lattice parameter (alat)  =       6.6812  a.u.
     unit-cell volume          =     210.8855 (a.u.)^3
     number of atoms/cell      =            2
     number of atomic types    =            1
     number of electrons       =         8.00
     number of Kohn-Sham states=            4
     kinetic-energy cutoff     =      10.0000  Ry
     charge density cutoff     =      40.0000  Ry
     convergence threshold     =      1.0E-07
     mixing beta               =       0.5000
     number of iterations used =            8  plain     mixing
     Exchange-correlation      = SLA PZ NOGX NOGC ( 1  1  0  0 0 0)

     celldm(1)=   6.681191  celldm(2)=   0.000000  celldm(3)=   0.000000
     celldm(4)=   0.000000  celldm(5)=   0.000000  celldm(6)=   0.000000

     crystal axes: (cart. coord. in units of alat)
               a(1) = (   0.000000   0.707107   0.707107 )  
               a(2) = (   0.707107   0.000000   0.707107 )  
               a(3) = (   0.707107   0.707107   0.000000 )  

     reciprocal axes: (cart. coord. in units 2 pi/alat)
               b(1) = ( -0.707107  0.707107  0.707107 )  
               b(2) = (  0.707107 -0.707107  0.707107 )  
               b(3) = (  0.707107  0.707107 -0.707107 )  


     PseudoPot. # 1 for Ge read from file:
     /home/modeler/qe_pseudo/Ge.pz-bhs.UPF
     MD5 check sum: 4f8fee77de72fb640d24dcbf01bda005
     Pseudo is Norm-conserving, Zval =  4.0
     Generated by new atomic code, or converted to UPF format
     Using radial grid of  291 points,  2 beta functions with: 
                l(1) =   0
                l(2) =   1

     atomic species   valence    mass     pseudopotential
        Ge             4.00    72.63000     Ge( 1.00)

     48 Sym. Ops., with inversion, found (24 have fractional translation)



   Cartesian axes

     site n.     atom                  positions (alat units)
         1           Ge  tau(   1) = (   0.0000000   0.0000000   0.0000000  )
         2           Ge  tau(   2) = (   0.3535534   0.3535534   0.3535534  )

     number of k points=     8
                       cart. coord. in units 2pi/alat
        k(    1) = (   0.0000000   0.0000000   0.0000000), wk =   0.0312500
        k(    2) = (   0.1767767   0.1767767  -0.1767767), wk =   0.2500000
        k(    3) = (  -0.3535534  -0.3535534   0.3535534), wk =   0.1250000
        k(    4) = (   0.3535534   0.0000000   0.0000000), wk =   0.1875000
        k(    5) = (  -0.1767767  -0.5303301   0.5303301), wk =   0.7500000
        k(    6) = (   0.0000000  -0.3535534   0.3535534), wk =   0.3750000
        k(    7) = (  -0.7071068   0.0000000   0.0000000), wk =   0.0937500
        k(    8) = (  -0.7071068   0.3535534   0.0000000), wk =   0.1875000

     Dense  grid:      893 G-vectors     FFT dimensions: (  16,  16,  16)

     Estimated max dynamical RAM per process >       0.84 MB

     Initial potential from superposition of free atoms

     starting charge    6.99990, renormalised to    8.00000
     Starting wfcs are    8 randomized atomic wfcs

     total cpu time spent up to now is        0.0 secs

     Self-consistent Calculation

     iteration #  1     ecut=    10.00 Ry     beta= 0.50
     Davidson diagonalization with overlap
     ethr =  1.00E-02,  avg # of iterations =  1.5

     Threshold (ethr) on eigenvalues was too large:
     Diagonalizing with lowered threshold

     Davidson diagonalization with overlap
     ethr =  3.06E-04,  avg # of iterations =  2.8

     total cpu time spent up to now is        0.1 secs

     total energy              =     -15.83948605 Ry
     Harris-Foulkes estimate   =     -15.84283592 Ry
     estimated scf accuracy    <       0.02995032 Ry

     iteration #  2     ecut=    10.00 Ry     beta= 0.50
     Davidson diagonalization with overlap
     ethr =  3.74E-04,  avg # of iterations =  1.0

     total cpu time spent up to now is        0.1 secs

     total energy              =     -15.83883238 Ry
     Harris-Foulkes estimate   =     -15.83971582 Ry
     estimated scf accuracy    <       0.00670046 Ry

     iteration #  3     ecut=    10.00 Ry     beta= 0.50
     Davidson diagonalization with overlap
     ethr =  8.38E-05,  avg # of iterations =  1.1

     total cpu time spent up to now is        0.1 secs

     total energy              =     -15.83896821 Ry
     Harris-Foulkes estimate   =     -15.83898630 Ry
     estimated scf accuracy    <       0.00004013 Ry

     iteration #  4     ecut=    10.00 Ry     beta= 0.50
     Davidson diagonalization with overlap
     ethr =  5.02E-07,  avg # of iterations =  2.9

     total cpu time spent up to now is        0.1 secs

     total energy              =     -15.83898892 Ry
     Harris-Foulkes estimate   =     -15.83898927 Ry
     estimated scf accuracy    <       0.00000127 Ry

     iteration #  5     ecut=    10.00 Ry     beta= 0.50
     Davidson diagonalization with overlap
     ethr =  1.58E-08,  avg # of iterations =  1.8

     total cpu time spent up to now is        0.1 secs

     End of self-consistent calculation

          k = 0.0000 0.0000 0.0000 (   113 PWs)   bands (ev):

    -5.6621  10.0171  10.0171  10.0171

          k = 0.1768 0.1768-0.1768 (   113 PWs)   bands (ev):

    -4.7339   4.3983   8.7519   8.7519

          k =-0.3536-0.3536 0.3536 (   108 PWs)   bands (ev):

    -2.7725   0.1743   8.0909   8.0909

          k = 0.3536 0.0000 0.0000 (   125 PWs)   bands (ev):

    -4.4194   5.2789   6.9905   6.9905

          k =-0.1768-0.5303 0.5303 (   110 PWs)   bands (ev):

    -2.3386   1.2079   4.6508   6.5327

          k = 0.0000-0.3536 0.3536 (   117 PWs)   bands (ev):

    -3.2106   2.4592   4.2625   7.8660

          k =-0.7071 0.0000 0.0000 (   116 PWs)   bands (ev):

    -0.5740  -0.5740   5.5741   5.5741

          k =-0.7071 0.3536 0.0000 (   108 PWs)   bands (ev):

    -0.2878  -0.2878   4.0676   4.0676

     highest occupied level (ev):    10.0171

!    total energy              =     -15.83898901 Ry
     Harris-Foulkes estimate   =     -15.83898901 Ry
     estimated scf accuracy    <       0.00000004 Ry

     The total energy is the sum of the following terms:

     one-electron contribution =       6.58637490 Ry
     hartree contribution      =       0.87641295 Ry
     xc contribution           =      -5.05812404 Ry
     ewald contribution        =     -18.24365282 Ry

     convergence has been achieved in   5 iterations

     Forces acting on atoms (cartesian axes, Ry/au):

     atom    1 type  1   force =    -0.00000000   -0.00000000    0.00000000
     atom    2 type  1   force =     0.00000000    0.00000000   -0.00000000

     Total force =     0.000000     Total SCF correction =     0.000000


     Computing stress (Cartesian axis) and pressure

          total   stress  (Ry/bohr**3)                   (kbar)     P=  493.35
   0.00335371  -0.00000000   0.00000000        493.35     -0.00      0.00
  -0.00000000   0.00335371   0.00000000         -0.00    493.35      0.00
   0.00000000   0.00000000   0.00335371          0.00      0.00    493.35


     init_run     :      0.01s CPU      0.01s WALL (       1 calls)
     electrons    :      0.05s CPU      0.05s WALL (       1 calls)
     forces       :      0.00s CPU      0.00s WALL (       1 calls)
     stress       :      0.00s CPU      0.00s WALL (       1 calls)

     Called by init_run:
     wfcinit      :      0.01s CPU      0.01s WALL (       1 calls)
     potinit      :      0.00s CPU      0.00s WALL (       1 calls)
     hinit0       :      0.01s CPU      0.01s WALL (       1 calls)

     Called by electrons:
     c_bands      :      0.04s CPU      0.04s WALL (       6 calls)
     sum_band     :      0.01s CPU      0.01s WALL (       6 calls)
     v_of_rho     :      0.00s CPU      0.00s WALL (       6 calls)
     mix_rho      :      0.00s CPU      0.00s WALL (       6 calls)

     Called by c_bands:
     init_us_2    :      0.00s CPU      0.00s WALL (     120 calls)
     cegterg      :      0.04s CPU      0.04s WALL (      48 calls)

     Called by sum_band:

     Called by *egterg:
     h_psi        :      0.03s CPU      0.03s WALL (     144 calls)
     g_psi        :      0.00s CPU      0.00s WALL (      88 calls)
     cdiaghg      :      0.00s CPU      0.00s WALL (     128 calls)

     Called by h_psi:
     h_psi:pot    :      0.03s CPU      0.03s WALL (     144 calls)
     h_psi:calbec :      0.00s CPU      0.00s WALL (     144 calls)
     vloc_psi     :      0.03s CPU      0.03s WALL (     144 calls)
     add_vuspsi   :      0.00s CPU      0.00s WALL (     144 calls)

     General routines
     calbec       :      0.00s CPU      0.00s WALL (     184 calls)
     fft          :      0.00s CPU      0.00s WALL (      23 calls)
     ffts         :      0.00s CPU      0.00s WALL (       6 calls)
     fftw         :      0.02s CPU      0.02s WALL (    1268 calls)

     Parallel routines

     PWSCF        :      0.10s CPU      0.10s WALL


   This run was terminated on:   0:29:46   2Oct2020            

=------------------------------------------------------------------------------=
   JOB DONE.
=------------------------------------------------------------------------------=
