
     Program PWSCF v.6.4.1 starts on  7Oct2020 at  2: 2:42 

     This program is part of the open-source Quantum ESPRESSO suite
     for quantum simulation of materials; please cite
         "P. Giannozzi et al., J. Phys.:Condens. Matter 21 395502 (2009);
         "P. Giannozzi et al., J. Phys.:Condens. Matter 29 465901 (2017);
          URL http://www.quantum-espresso.org", 
     in publications or presentations arising from this work. More details at
     http://www.quantum-espresso.org/quote

     Parallel version (MPI), running on     1 processors

     MPI processes distributed on     1 nodes
     Waiting for input...
     Reading input from standard input
Warning: card &IONS ignored
Warning: card / ignored
Warning: card &CELL ignored
Warning: card / ignored

     Current dimensions of program PWSCF are:
     Max number of different atomic species (ntypx) = 10
     Max number of k-points (npk) =  40000
     Max angular momentum in pseudopotentials (lmaxx) =  3

     Subspace diagonalization in iterative solution of the eigenvalue problem:
     a serial algorithm will be used

     Message from routine setup:
     DEPRECATED: symmetry with ibrav=0, use correct ibrav instead

     G-vector sticks info
     --------------------
     sticks:   dense  smooth     PW     G-vecs:    dense   smooth      PW
     Sum        1177    1177    349                26813    26813    4279



     bravais-lattice index     =            0
     lattice parameter (alat)  =       7.5660  a.u.
     unit-cell volume          =     306.2608 (a.u.)^3
     number of atoms/cell      =            2
     number of atomic types    =            1
     number of electrons       =         8.00
     number of Kohn-Sham states=            4
     kinetic-energy cutoff     =      75.0000  Ry
     charge density cutoff     =     300.0000  Ry
     convergence threshold     =      1.0E-07
     mixing beta               =       0.5000
     number of iterations used =            8  plain     mixing
     Exchange-correlation      = SLA PZ NOGX NOGC ( 1  1  0  0 0 0)

     celldm(1)=   7.566043  celldm(2)=   0.000000  celldm(3)=   0.000000
     celldm(4)=   0.000000  celldm(5)=   0.000000  celldm(6)=   0.000000

     crystal axes: (cart. coord. in units of alat)
               a(1) = (   0.000000   0.707107   0.707107 )  
               a(2) = (   0.707107   0.000000   0.707107 )  
               a(3) = (   0.707107   0.707107   0.000000 )  

     reciprocal axes: (cart. coord. in units 2 pi/alat)
               b(1) = ( -0.707107  0.707107  0.707107 )  
               b(2) = (  0.707107 -0.707107  0.707107 )  
               b(3) = (  0.707107  0.707107 -0.707107 )  


     PseudoPot. # 1 for Ge read from file:
     /home/modeler/qe_pseudo/Ge.pz-bhs.UPF
     MD5 check sum: 4f8fee77de72fb640d24dcbf01bda005
     Pseudo is Norm-conserving, Zval =  4.0
     Generated by new atomic code, or converted to UPF format
     Using radial grid of  291 points,  2 beta functions with: 
                l(1) =   0
                l(2) =   1

     atomic species   valence    mass     pseudopotential
        Ge             4.00    72.63000     Ge( 1.00)

     48 Sym. Ops., with inversion, found (24 have fractional translation)



   Cartesian axes

     site n.     atom                  positions (alat units)
         1           Ge  tau(   1) = (   0.0000000   0.0000000   0.0000000  )
         2           Ge  tau(   2) = (   0.3535536   0.3535536   0.3535536  )

     number of k points=     8
                       cart. coord. in units 2pi/alat
        k(    1) = (   0.0000000   0.0000000   0.0000000), wk =   0.0312500
        k(    2) = (   0.1767767   0.1767767  -0.1767767), wk =   0.2500000
        k(    3) = (  -0.3535534  -0.3535534   0.3535534), wk =   0.1250000
        k(    4) = (   0.3535534   0.0000000   0.0000000), wk =   0.1875000
        k(    5) = (  -0.1767767  -0.5303301   0.5303301), wk =   0.7500000
        k(    6) = (   0.0000000  -0.3535534   0.3535534), wk =   0.3750000
        k(    7) = (  -0.7071068   0.0000000   0.0000000), wk =   0.0937500
        k(    8) = (  -0.7071068   0.3535534   0.0000000), wk =   0.1875000

     Dense  grid:    26813 G-vectors     FFT dimensions: (  48,  48,  48)

     Estimated max dynamical RAM per process >      22.79 MB

     Initial potential from superposition of free atoms

     starting charge    6.99990, renormalised to    8.00000
     Starting wfcs are    8 randomized atomic wfcs

     total cpu time spent up to now is        0.3 secs

     Self-consistent Calculation

     iteration #  1     ecut=    75.00 Ry     beta= 0.50
     Davidson diagonalization with overlap
     ethr =  1.00E-02,  avg # of iterations =  1.9

     Threshold (ethr) on eigenvalues was too large:
     Diagonalizing with lowered threshold

     Davidson diagonalization with overlap
     ethr =  3.14E-04,  avg # of iterations =  2.5

     total cpu time spent up to now is        1.0 secs

     total energy              =     -15.99625727 Ry
     Harris-Foulkes estimate   =     -15.99972034 Ry
     estimated scf accuracy    <       0.02689320 Ry

     iteration #  2     ecut=    75.00 Ry     beta= 0.50
     Davidson diagonalization with overlap
     ethr =  3.36E-04,  avg # of iterations =  1.0

     total cpu time spent up to now is        1.3 secs

     total energy              =     -15.99527393 Ry
     Harris-Foulkes estimate   =     -15.99637348 Ry
     estimated scf accuracy    <       0.00642826 Ry

     iteration #  3     ecut=    75.00 Ry     beta= 0.50
     Davidson diagonalization with overlap
     ethr =  8.04E-05,  avg # of iterations =  1.0

     total cpu time spent up to now is        1.6 secs

     total energy              =     -15.99535073 Ry
     Harris-Foulkes estimate   =     -15.99535412 Ry
     estimated scf accuracy    <       0.00000688 Ry

     iteration #  4     ecut=    75.00 Ry     beta= 0.50
     Davidson diagonalization with overlap
     ethr =  8.61E-08,  avg # of iterations =  5.1

     total cpu time spent up to now is        2.2 secs

     total energy              =     -15.99537294 Ry
     Harris-Foulkes estimate   =     -15.99537309 Ry
     estimated scf accuracy    <       0.00000047 Ry

     iteration #  5     ecut=    75.00 Ry     beta= 0.50
     Davidson diagonalization with overlap
     ethr =  5.89E-09,  avg # of iterations =  2.0

     total cpu time spent up to now is        2.6 secs

     total energy              =     -15.99537296 Ry
     Harris-Foulkes estimate   =     -15.99537306 Ry
     estimated scf accuracy    <       0.00000017 Ry

     iteration #  6     ecut=    75.00 Ry     beta= 0.50
     Davidson diagonalization with overlap
     ethr =  2.12E-09,  avg # of iterations =  2.0

     total cpu time spent up to now is        2.9 secs

     End of self-consistent calculation

          k = 0.0000 0.0000 0.0000 (  3383 PWs)   bands (ev):

    -7.1319   5.4096   5.4096   5.4096

          k = 0.1768 0.1768-0.1768 (  3371 PWs)   bands (ev):

    -6.4409   0.7104   4.5641   4.5641

          k =-0.3536-0.3536 0.3536 (  3354 PWs)   bands (ev):

    -5.1748  -2.1577   4.0661   4.0662

          k = 0.3536 0.0000 0.0000 (  3359 PWs)   bands (ev):

    -6.1894   0.7023   3.4277   3.4277

          k =-0.1768-0.5303 0.5303 (  3351 PWs)   bands (ev):

    -4.7806  -1.9647   1.7307   3.0787

          k = 0.0000-0.3536 0.3536 (  3378 PWs)   bands (ev):

    -5.3650  -1.1150   1.5892   3.9596

          k =-0.7071 0.0000 0.0000 (  3338 PWs)   bands (ev):

    -3.4441  -3.4440   2.4219   2.4219

          k =-0.7071 0.3536 0.0000 (  3380 PWs)   bands (ev):

    -3.3501  -3.3501   1.5557   1.5557

     highest occupied level (ev):     5.4096

!    total energy              =     -15.99537299 Ry
     Harris-Foulkes estimate   =     -15.99537299 Ry
     estimated scf accuracy    <          6.4E-09 Ry

     The total energy is the sum of the following terms:

     one-electron contribution =       3.55925284 Ry
     hartree contribution      =       1.21381403 Ry
     xc contribution           =      -4.65839087 Ry
     ewald contribution        =     -16.11004900 Ry

     convergence has been achieved in   6 iterations

     Forces acting on atoms (cartesian axes, Ry/au):

     atom    1 type  1   force =     0.00000000    0.00000000    0.00000000
     atom    2 type  1   force =     0.00000000   -0.00000000    0.00000000

     Total force =     0.000000     Total SCF correction =     0.000000


     Computing stress (Cartesian axis) and pressure

          total   stress  (Ry/bohr**3)                   (kbar)     P=  -16.48
  -0.00011202  -0.00000000  -0.00000000        -16.48     -0.00     -0.00
  -0.00000000  -0.00011202  -0.00000000         -0.00    -16.48     -0.00
  -0.00000000  -0.00000000  -0.00011202         -0.00     -0.00    -16.48


     init_run     :      0.29s CPU      0.29s WALL (       1 calls)
     electrons    :      2.56s CPU      2.59s WALL (       1 calls)
     forces       :      0.02s CPU      0.02s WALL (       1 calls)
     stress       :      0.12s CPU      0.13s WALL (       1 calls)

     Called by init_run:
     wfcinit      :      0.22s CPU      0.22s WALL (       1 calls)
     potinit      :      0.01s CPU      0.02s WALL (       1 calls)
     hinit0       :      0.03s CPU      0.03s WALL (       1 calls)

     Called by electrons:
     c_bands      :      2.02s CPU      2.04s WALL (       7 calls)
     sum_band     :      0.45s CPU      0.45s WALL (       7 calls)
     v_of_rho     :      0.06s CPU      0.06s WALL (       7 calls)
     mix_rho      :      0.03s CPU      0.03s WALL (       7 calls)

     Called by c_bands:
     init_us_2    :      0.08s CPU      0.08s WALL (     136 calls)
     cegterg      :      1.96s CPU      1.98s WALL (      56 calls)

     Called by sum_band:

     Called by *egterg:
     h_psi        :      1.99s CPU      2.01s WALL (     188 calls)
     g_psi        :      0.01s CPU      0.01s WALL (     124 calls)
     cdiaghg      :      0.01s CPU      0.01s WALL (     172 calls)

     Called by h_psi:
     h_psi:pot    :      1.98s CPU      2.00s WALL (     188 calls)
     h_psi:calbec :      0.04s CPU      0.05s WALL (     188 calls)
     vloc_psi     :      1.90s CPU      1.92s WALL (     188 calls)
     add_vuspsi   :      0.04s CPU      0.04s WALL (     188 calls)

     General routines
     calbec       :      0.05s CPU      0.05s WALL (     228 calls)
     fft          :      0.06s CPU      0.06s WALL (      26 calls)
     ffts         :      0.01s CPU      0.01s WALL (       7 calls)
     fftw         :      1.91s CPU      1.92s WALL (    1592 calls)

     Parallel routines

     PWSCF        :      3.02s CPU      3.07s WALL


   This run was terminated on:   2: 2:45   7Oct2020            

=------------------------------------------------------------------------------=
   JOB DONE.
=------------------------------------------------------------------------------=
