
     Program PWSCF v.6.4.1 starts on  7Oct2020 at  3:49:37 

     This program is part of the open-source Quantum ESPRESSO suite
     for quantum simulation of materials; please cite
         "P. Giannozzi et al., J. Phys.:Condens. Matter 21 395502 (2009);
         "P. Giannozzi et al., J. Phys.:Condens. Matter 29 465901 (2017);
          URL http://www.quantum-espresso.org", 
     in publications or presentations arising from this work. More details at
     http://www.quantum-espresso.org/quote

     Parallel version (MPI), running on     1 processors

     MPI processes distributed on     1 nodes
     Waiting for input...
     Reading input from standard input
Warning: card &IONS ignored
Warning: card / ignored
Warning: card &CELL ignored
Warning: card / ignored

     Current dimensions of program PWSCF are:
     Max number of different atomic species (ntypx) = 10
     Max number of k-points (npk) =  40000
     Max angular momentum in pseudopotentials (lmaxx) =  3

     Subspace diagonalization in iterative solution of the eigenvalue problem:
     a serial algorithm will be used

     Message from routine setup:
     DEPRECATED: symmetry with ibrav=0, use correct ibrav instead

     G-vector sticks info
     --------------------
     sticks:   dense  smooth     PW     G-vecs:    dense   smooth      PW
     Sum         559     559    163                 8609     8609    1459



     bravais-lattice index     =            0
     lattice parameter (alat)  =       7.0821  a.u.
     unit-cell volume          =     251.1680 (a.u.)^3
     number of atoms/cell      =            2
     number of atomic types    =            1
     number of electrons       =         8.00
     number of Kohn-Sham states=            4
     kinetic-energy cutoff     =      40.0000  Ry
     charge density cutoff     =     160.0000  Ry
     convergence threshold     =      1.0E-07
     mixing beta               =       0.5000
     number of iterations used =            8  plain     mixing
     Exchange-correlation      = SLA PZ NOGX NOGC ( 1  1  0  0 0 0)

     celldm(1)=   7.082062  celldm(2)=   0.000000  celldm(3)=   0.000000
     celldm(4)=   0.000000  celldm(5)=   0.000000  celldm(6)=   0.000000

     crystal axes: (cart. coord. in units of alat)
               a(1) = (   0.000000   0.707107   0.707107 )  
               a(2) = (   0.707107   0.000000   0.707107 )  
               a(3) = (   0.707107   0.707107   0.000000 )  

     reciprocal axes: (cart. coord. in units 2 pi/alat)
               b(1) = ( -0.707107  0.707107  0.707107 )  
               b(2) = (  0.707107 -0.707107  0.707107 )  
               b(3) = (  0.707107  0.707107 -0.707107 )  


     PseudoPot. # 1 for Ge read from file:
     /home/modeler/qe_pseudo/Ge.pz-bhs.UPF
     MD5 check sum: 4f8fee77de72fb640d24dcbf01bda005
     Pseudo is Norm-conserving, Zval =  4.0
     Generated by new atomic code, or converted to UPF format
     Using radial grid of  291 points,  2 beta functions with: 
                l(1) =   0
                l(2) =   1

     atomic species   valence    mass     pseudopotential
        Ge             4.00    72.63000     Ge( 1.00)

     48 Sym. Ops., with inversion, found (24 have fractional translation)



   Cartesian axes

     site n.     atom                  positions (alat units)
         1           Ge  tau(   1) = (   0.0000000   0.0000000   0.0000000  )
         2           Ge  tau(   2) = (   0.3535534   0.3535534   0.3535534  )

     number of k points=    10
                       cart. coord. in units 2pi/alat
        k(    1) = (   0.0000000   0.0000000   0.0000000), wk =   0.0160000
        k(    2) = (   0.1414214   0.1414214  -0.1414214), wk =   0.1280000
        k(    3) = (   0.2828427   0.2828427  -0.2828427), wk =   0.1280000
        k(    4) = (   0.2828427   0.0000000   0.0000000), wk =   0.0960000
        k(    5) = (   0.4242641   0.1414214  -0.1414214), wk =   0.3840000
        k(    6) = (  -0.1414214  -0.4242641   0.4242641), wk =   0.3840000
        k(    7) = (   0.0000000  -0.2828427   0.2828427), wk =   0.1920000
        k(    8) = (   0.5656854   0.0000000   0.0000000), wk =   0.0960000
        k(    9) = (   0.0000000  -0.5656854   0.5656854), wk =   0.1920000
        k(   10) = (  -0.1414214  -0.4242641   0.7071068), wk =   0.3840000

     Dense  grid:     8609 G-vectors     FFT dimensions: (  32,  32,  32)

     Estimated max dynamical RAM per process >       7.32 MB

     Initial potential from superposition of free atoms

     starting charge    6.99990, renormalised to    8.00000
     Starting wfcs are    8 randomized atomic wfcs

     total cpu time spent up to now is        0.1 secs

     Self-consistent Calculation

     iteration #  1     ecut=    40.00 Ry     beta= 0.50
     Davidson diagonalization with overlap
     ethr =  1.00E-02,  avg # of iterations =  1.4

     Threshold (ethr) on eigenvalues was too large:
     Diagonalizing with lowered threshold

     Davidson diagonalization with overlap
     ethr =  2.62E-04,  avg # of iterations =  3.0

     total cpu time spent up to now is        0.3 secs

     total energy              =     -15.98338039 Ry
     Harris-Foulkes estimate   =     -15.98617313 Ry
     estimated scf accuracy    <       0.02457563 Ry

     iteration #  2     ecut=    40.00 Ry     beta= 0.50
     Davidson diagonalization with overlap
     ethr =  3.07E-04,  avg # of iterations =  1.0

     total cpu time spent up to now is        0.3 secs

     total energy              =     -15.98251652 Ry
     Harris-Foulkes estimate   =     -15.98343811 Ry
     estimated scf accuracy    <       0.00580811 Ry

     iteration #  3     ecut=    40.00 Ry     beta= 0.50
     Davidson diagonalization with overlap
     ethr =  7.26E-05,  avg # of iterations =  1.0

     total cpu time spent up to now is        0.4 secs

     total energy              =     -15.98257020 Ry
     Harris-Foulkes estimate   =     -15.98257765 Ry
     estimated scf accuracy    <       0.00001398 Ry

     iteration #  4     ecut=    40.00 Ry     beta= 0.50
     Davidson diagonalization with overlap
     ethr =  1.75E-07,  avg # of iterations =  3.6

     total cpu time spent up to now is        0.5 secs

     total energy              =     -15.98258037 Ry
     Harris-Foulkes estimate   =     -15.98258282 Ry
     estimated scf accuracy    <       0.00000449 Ry

     iteration #  5     ecut=    40.00 Ry     beta= 0.50
     Davidson diagonalization with overlap
     ethr =  5.61E-08,  avg # of iterations =  2.0

     total cpu time spent up to now is        0.6 secs

     total energy              =     -15.98258111 Ry
     Harris-Foulkes estimate   =     -15.98258118 Ry
     estimated scf accuracy    <       0.00000028 Ry

     iteration #  6     ecut=    40.00 Ry     beta= 0.50
     Davidson diagonalization with overlap
     ethr =  3.49E-09,  avg # of iterations =  2.1

     total cpu time spent up to now is        0.6 secs

     total energy              =     -15.98258109 Ry
     Harris-Foulkes estimate   =     -15.98258114 Ry
     estimated scf accuracy    <       0.00000011 Ry

     iteration #  7     ecut=    40.00 Ry     beta= 0.50
     Davidson diagonalization with overlap
     ethr =  1.35E-09,  avg # of iterations =  2.0

     total cpu time spent up to now is        0.7 secs

     End of self-consistent calculation

          k = 0.0000 0.0000 0.0000 (  1067 PWs)   bands (ev):

    -6.4662   7.5945   7.5945   7.5945

          k = 0.1414 0.1414-0.1414 (  1065 PWs)   bands (ev):

    -5.9384   3.6462   6.7879   6.7879

          k = 0.2828 0.2828-0.2828 (  1065 PWs)   bands (ev):

    -4.5215  -0.2173   6.0551   6.0551

          k = 0.2828 0.0000 0.0000 (  1070 PWs)   bands (ev):

    -5.7556   4.0340   5.6240   5.6240

          k = 0.4243 0.1414-0.1414 (  1078 PWs)   bands (ev):

    -4.5658   0.8411   4.1658   4.9729

          k =-0.1414-0.4243 0.4243 (  1080 PWs)   bands (ev):

    -3.6332  -0.7418   3.1913   5.3176

          k = 0.0000-0.2828 0.2828 (  1073 PWs)   bands (ev):

    -5.0776   1.8219   3.7417   6.4279

          k = 0.5657 0.0000 0.0000 (  1082 PWs)   bands (ev):

    -3.6314  -0.2179   4.1034   4.1034

          k = 0.0000-0.5657 0.5657 (  1073 PWs)   bands (ev):

    -2.3340  -1.6418   2.4928   4.2470

          k =-0.1414-0.4243 0.7071 (  1078 PWs)   bands (ev):

    -3.1646  -0.6593   2.5848   3.7661

     highest occupied level (ev):     7.5945

!    total energy              =     -15.98258110 Ry
     Harris-Foulkes estimate   =     -15.98258111 Ry
     estimated scf accuracy    <       0.00000002 Ry

     The total energy is the sum of the following terms:

     one-electron contribution =       5.06766878 Ry
     hartree contribution      =       1.01873939 Ry
     xc contribution           =      -4.85799602 Ry
     ewald contribution        =     -17.21099326 Ry

     convergence has been achieved in   7 iterations

     Forces acting on atoms (cartesian axes, Ry/au):

     atom    1 type  1   force =    -0.00000000   -0.00000000    0.00000000
     atom    2 type  1   force =     0.00000000    0.00000000   -0.00000000

     Total force =     0.000000     Total SCF correction =     0.000000


     Computing stress (Cartesian axis) and pressure

          total   stress  (Ry/bohr**3)                   (kbar)     P=  182.04
   0.00123748   0.00000000  -0.00000000        182.04      0.00     -0.00
   0.00000000   0.00123748   0.00000000          0.00    182.04      0.00
  -0.00000000   0.00000000   0.00123748         -0.00      0.00    182.04


     init_run     :      0.08s CPU      0.08s WALL (       1 calls)
     electrons    :      0.62s CPU      0.63s WALL (       1 calls)
     forces       :      0.01s CPU      0.01s WALL (       1 calls)
     stress       :      0.05s CPU      0.05s WALL (       1 calls)

     Called by init_run:
     wfcinit      :      0.05s CPU      0.05s WALL (       1 calls)
     potinit      :      0.00s CPU      0.00s WALL (       1 calls)
     hinit0       :      0.02s CPU      0.02s WALL (       1 calls)

     Called by electrons:
     c_bands      :      0.48s CPU      0.49s WALL (       8 calls)
     sum_band     :      0.11s CPU      0.11s WALL (       8 calls)
     v_of_rho     :      0.02s CPU      0.02s WALL (       8 calls)
     mix_rho      :      0.01s CPU      0.01s WALL (       8 calls)

     Called by c_bands:
     init_us_2    :      0.04s CPU      0.04s WALL (     190 calls)
     cegterg      :      0.45s CPU      0.45s WALL (      80 calls)

     Called by sum_band:

     Called by *egterg:
     h_psi        :      0.41s CPU      0.41s WALL (     251 calls)
     g_psi        :      0.01s CPU      0.01s WALL (     161 calls)
     cdiaghg      :      0.01s CPU      0.01s WALL (     231 calls)

     Called by h_psi:
     h_psi:pot    :      0.40s CPU      0.41s WALL (     251 calls)
     h_psi:calbec :      0.02s CPU      0.02s WALL (     251 calls)
     vloc_psi     :      0.37s CPU      0.37s WALL (     251 calls)
     add_vuspsi   :      0.02s CPU      0.02s WALL (     251 calls)

     General routines
     calbec       :      0.02s CPU      0.02s WALL (     301 calls)
     fft          :      0.01s CPU      0.01s WALL (      29 calls)
     ffts         :      0.00s CPU      0.00s WALL (       8 calls)
     fftw         :      0.31s CPU      0.32s WALL (    2172 calls)

     Parallel routines

     PWSCF        :      0.78s CPU      0.79s WALL


   This run was terminated on:   3:49:38   7Oct2020            

=------------------------------------------------------------------------------=
   JOB DONE.
=------------------------------------------------------------------------------=
