
     Program PWSCF v.6.4.1 starts on  1Oct2020 at 21:24: 3 

     This program is part of the open-source Quantum ESPRESSO suite
     for quantum simulation of materials; please cite
         "P. Giannozzi et al., J. Phys.:Condens. Matter 21 395502 (2009);
         "P. Giannozzi et al., J. Phys.:Condens. Matter 29 465901 (2017);
          URL http://www.quantum-espresso.org", 
     in publications or presentations arising from this work. More details at
     http://www.quantum-espresso.org/quote

     Parallel version (MPI), running on     1 processors

     MPI processes distributed on     1 nodes
     Waiting for input...
     Reading input from standard input
Warning: card &IONS ignored
Warning: card / ignored
Warning: card &CELL ignored
Warning: card / ignored

     Current dimensions of program PWSCF are:
     Max number of different atomic species (ntypx) = 10
     Max number of k-points (npk) =  40000
     Max angular momentum in pseudopotentials (lmaxx) =  3

     Subspace diagonalization in iterative solution of the eigenvalue problem:
     a serial algorithm will be used

     Message from routine setup:
     DEPRECATED: symmetry with ibrav=0, use correct ibrav instead

     G-vector sticks info
     --------------------
     sticks:   dense  smooth     PW     G-vecs:    dense   smooth      PW
     Sum         805     805    241                15009    15009    2421



     bravais-lattice index     =            0
     lattice parameter (alat)  =       6.6812  a.u.
     unit-cell volume          =     210.8855 (a.u.)^3
     number of atoms/cell      =            2
     number of atomic types    =            1
     number of electrons       =         8.00
     number of Kohn-Sham states=            4
     kinetic-energy cutoff     =      65.0000  Ry
     charge density cutoff     =     260.0000  Ry
     convergence threshold     =      1.0E-07
     mixing beta               =       0.5000
     number of iterations used =            8  plain     mixing
     Exchange-correlation      = SLA PZ NOGX NOGC ( 1  1  0  0 0 0)

     celldm(1)=   6.681191  celldm(2)=   0.000000  celldm(3)=   0.000000
     celldm(4)=   0.000000  celldm(5)=   0.000000  celldm(6)=   0.000000

     crystal axes: (cart. coord. in units of alat)
               a(1) = (   0.000000   0.707107   0.707107 )  
               a(2) = (   0.707107   0.000000   0.707107 )  
               a(3) = (   0.707107   0.707107   0.000000 )  

     reciprocal axes: (cart. coord. in units 2 pi/alat)
               b(1) = ( -0.707107  0.707107  0.707107 )  
               b(2) = (  0.707107 -0.707107  0.707107 )  
               b(3) = (  0.707107  0.707107 -0.707107 )  


     PseudoPot. # 1 for Ge read from file:
     /home/modeler/qe_pseudo/Ge.pz-bhs.UPF
     MD5 check sum: 4f8fee77de72fb640d24dcbf01bda005
     Pseudo is Norm-conserving, Zval =  4.0
     Generated by new atomic code, or converted to UPF format
     Using radial grid of  291 points,  2 beta functions with: 
                l(1) =   0
                l(2) =   1

     atomic species   valence    mass     pseudopotential
        Ge             4.00    72.63000     Ge( 1.00)

     48 Sym. Ops., with inversion, found (24 have fractional translation)



   Cartesian axes

     site n.     atom                  positions (alat units)
         1           Ge  tau(   1) = (   0.0000000   0.0000000   0.0000000  )
         2           Ge  tau(   2) = (   0.3535534   0.3535534   0.3535534  )

     number of k points=     8
                       cart. coord. in units 2pi/alat
        k(    1) = (   0.0000000   0.0000000   0.0000000), wk =   0.0312500
        k(    2) = (   0.1767767   0.1767767  -0.1767767), wk =   0.2500000
        k(    3) = (  -0.3535534  -0.3535534   0.3535534), wk =   0.1250000
        k(    4) = (   0.3535534   0.0000000   0.0000000), wk =   0.1875000
        k(    5) = (  -0.1767767  -0.5303301   0.5303301), wk =   0.7500000
        k(    6) = (   0.0000000  -0.3535534   0.3535534), wk =   0.3750000
        k(    7) = (  -0.7071068   0.0000000   0.0000000), wk =   0.0937500
        k(    8) = (  -0.7071068   0.3535534   0.0000000), wk =   0.1875000

     Dense  grid:    15009 G-vectors     FFT dimensions: (  36,  36,  36)

     Estimated max dynamical RAM per process >      11.74 MB

     Initial potential from superposition of free atoms

     starting charge    6.99990, renormalised to    8.00000
     Starting wfcs are    8 randomized atomic wfcs

     total cpu time spent up to now is        0.2 secs

     Self-consistent Calculation

     iteration #  1     ecut=    65.00 Ry     beta= 0.50
     Davidson diagonalization with overlap
     ethr =  1.00E-02,  avg # of iterations =  1.8

     Threshold (ethr) on eigenvalues was too large:
     Diagonalizing with lowered threshold

     Davidson diagonalization with overlap
     ethr =  3.06E-04,  avg # of iterations =  3.0

     total cpu time spent up to now is        0.6 secs

     total energy              =     -15.87683815 Ry
     Harris-Foulkes estimate   =     -15.88123536 Ry
     estimated scf accuracy    <       0.02975208 Ry

     iteration #  2     ecut=    65.00 Ry     beta= 0.50
     Davidson diagonalization with overlap
     ethr =  3.72E-04,  avg # of iterations =  1.0

     total cpu time spent up to now is        0.7 secs

     total energy              =     -15.87602016 Ry
     Harris-Foulkes estimate   =     -15.87711305 Ry
     estimated scf accuracy    <       0.00647736 Ry

     iteration #  3     ecut=    65.00 Ry     beta= 0.50
     Davidson diagonalization with overlap
     ethr =  8.10E-05,  avg # of iterations =  1.0

     total cpu time spent up to now is        0.8 secs

     total energy              =     -15.87619419 Ry
     Harris-Foulkes estimate   =     -15.87621438 Ry
     estimated scf accuracy    <       0.00004391 Ry

     iteration #  4     ecut=    65.00 Ry     beta= 0.50
     Davidson diagonalization with overlap
     ethr =  5.49E-07,  avg # of iterations =  2.8

     total cpu time spent up to now is        1.1 secs

     total energy              =     -15.87622274 Ry
     Harris-Foulkes estimate   =     -15.87622339 Ry
     estimated scf accuracy    <       0.00000219 Ry

     iteration #  5     ecut=    65.00 Ry     beta= 0.50
     Davidson diagonalization with overlap
     ethr =  2.74E-08,  avg # of iterations =  1.8

     total cpu time spent up to now is        1.2 secs

     total energy              =     -15.87622293 Ry
     Harris-Foulkes estimate   =     -15.87622291 Ry
     estimated scf accuracy    <       0.00000010 Ry

     iteration #  6     ecut=    65.00 Ry     beta= 0.50
     Davidson diagonalization with overlap
     ethr =  1.30E-09,  avg # of iterations =  2.5

     total cpu time spent up to now is        1.4 secs

     End of self-consistent calculation

          k = 0.0000 0.0000 0.0000 (  1837 PWs)   bands (ev):

    -5.7130   9.9766   9.9766   9.9766

          k = 0.1768 0.1768-0.1768 (  1880 PWs)   bands (ev):

    -4.7736   4.3434   8.7039   8.7039

          k =-0.3536-0.3536 0.3536 (  1892 PWs)   bands (ev):

    -2.8127   0.1262   8.0324   8.0324

          k = 0.3536 0.0000 0.0000 (  1876 PWs)   bands (ev):

    -4.4438   5.2327   6.9473   6.9473

          k =-0.1768-0.5303 0.5303 (  1862 PWs)   bands (ev):

    -2.3961   1.1537   4.6043   6.4836

          k = 0.0000-0.3536 0.3536 (  1863 PWs)   bands (ev):

    -3.2510   2.4094   4.2228   7.8212

          k =-0.7071 0.0000 0.0000 (  1868 PWs)   bands (ev):

    -0.6156  -0.6156   5.5260   5.5260

          k =-0.7071 0.3536 0.0000 (  1856 PWs)   bands (ev):

    -0.3472  -0.3472   4.0252   4.0252

     highest occupied level (ev):     9.9766

!    total energy              =     -15.87622293 Ry
     Harris-Foulkes estimate   =     -15.87622295 Ry
     estimated scf accuracy    <       0.00000004 Ry

     The total energy is the sum of the following terms:

     one-electron contribution =       6.54484578 Ry
     hartree contribution      =       0.88700536 Ry
     xc contribution           =      -5.06442126 Ry
     ewald contribution        =     -18.24365281 Ry

     convergence has been achieved in   6 iterations

     Forces acting on atoms (cartesian axes, Ry/au):

     atom    1 type  1   force =    -0.00000000    0.00000000    0.00000000
     atom    2 type  1   force =     0.00000000   -0.00000000   -0.00000000

     Total force =     0.000000     Total SCF correction =     0.000000


     Computing stress (Cartesian axis) and pressure

          total   stress  (Ry/bohr**3)                   (kbar)     P=  545.15
   0.00370587   0.00000000   0.00000000        545.15      0.00      0.00
   0.00000000   0.00370587   0.00000000          0.00    545.15      0.00
   0.00000000   0.00000000   0.00370587          0.00      0.00    545.15


     init_run     :      0.15s CPU      0.16s WALL (       1 calls)
     electrons    :      1.21s CPU      1.22s WALL (       1 calls)
     forces       :      0.01s CPU      0.01s WALL (       1 calls)
     stress       :      0.08s CPU      0.08s WALL (       1 calls)

     Called by init_run:
     wfcinit      :      0.11s CPU      0.11s WALL (       1 calls)
     potinit      :      0.01s CPU      0.01s WALL (       1 calls)
     hinit0       :      0.02s CPU      0.03s WALL (       1 calls)

     Called by electrons:
     c_bands      :      0.94s CPU      0.95s WALL (       7 calls)
     sum_band     :      0.22s CPU      0.22s WALL (       7 calls)
     v_of_rho     :      0.03s CPU      0.03s WALL (       7 calls)
     mix_rho      :      0.01s CPU      0.02s WALL (       7 calls)

     Called by c_bands:
     init_us_2    :      0.04s CPU      0.05s WALL (     136 calls)
     cegterg      :      0.91s CPU      0.91s WALL (      56 calls)

     Called by sum_band:

     Called by *egterg:
     h_psi        :      0.91s CPU      0.92s WALL (     174 calls)
     g_psi        :      0.01s CPU      0.01s WALL (     110 calls)
     cdiaghg      :      0.01s CPU      0.01s WALL (     158 calls)

     Called by h_psi:
     h_psi:pot    :      0.91s CPU      0.91s WALL (     174 calls)
     h_psi:calbec :      0.03s CPU      0.03s WALL (     174 calls)
     vloc_psi     :      0.86s CPU      0.87s WALL (     174 calls)
     add_vuspsi   :      0.02s CPU      0.02s WALL (     174 calls)

     General routines
     calbec       :      0.03s CPU      0.03s WALL (     214 calls)
     fft          :      0.03s CPU      0.03s WALL (      26 calls)
     ffts         :      0.01s CPU      0.01s WALL (       7 calls)
     fftw         :      0.88s CPU      0.89s WALL (    1504 calls)

     Parallel routines

     PWSCF        :      1.48s CPU      1.50s WALL


   This run was terminated on:  21:24: 5   1Oct2020            

=------------------------------------------------------------------------------=
   JOB DONE.
=------------------------------------------------------------------------------=
