
     Program PWSCF v.6.4.1 starts on  7Oct2020 at  2: 2:11 

     This program is part of the open-source Quantum ESPRESSO suite
     for quantum simulation of materials; please cite
         "P. Giannozzi et al., J. Phys.:Condens. Matter 21 395502 (2009);
         "P. Giannozzi et al., J. Phys.:Condens. Matter 29 465901 (2017);
          URL http://www.quantum-espresso.org", 
     in publications or presentations arising from this work. More details at
     http://www.quantum-espresso.org/quote

     Parallel version (MPI), running on     1 processors

     MPI processes distributed on     1 nodes
     Waiting for input...
     Reading input from standard input
Warning: card &IONS ignored
Warning: card / ignored
Warning: card &CELL ignored
Warning: card / ignored

     Current dimensions of program PWSCF are:
     Max number of different atomic species (ntypx) = 10
     Max number of k-points (npk) =  40000
     Max angular momentum in pseudopotentials (lmaxx) =  3

     Subspace diagonalization in iterative solution of the eigenvalue problem:
     a serial algorithm will be used

     Message from routine setup:
     DEPRECATED: symmetry with ibrav=0, use correct ibrav instead

     G-vector sticks info
     --------------------
     sticks:   dense  smooth     PW     G-vecs:    dense   smooth      PW
     Sum         559     559    163                 8609     8609    1459



     bravais-lattice index     =            0
     lattice parameter (alat)  =       7.5660  a.u.
     unit-cell volume          =     306.2608 (a.u.)^3
     number of atoms/cell      =            2
     number of atomic types    =            1
     number of electrons       =         8.00
     number of Kohn-Sham states=            4
     kinetic-energy cutoff     =      35.0000  Ry
     charge density cutoff     =     140.0000  Ry
     convergence threshold     =      1.0E-07
     mixing beta               =       0.5000
     number of iterations used =            8  plain     mixing
     Exchange-correlation      = SLA PZ NOGX NOGC ( 1  1  0  0 0 0)

     celldm(1)=   7.566043  celldm(2)=   0.000000  celldm(3)=   0.000000
     celldm(4)=   0.000000  celldm(5)=   0.000000  celldm(6)=   0.000000

     crystal axes: (cart. coord. in units of alat)
               a(1) = (   0.000000   0.707107   0.707107 )  
               a(2) = (   0.707107   0.000000   0.707107 )  
               a(3) = (   0.707107   0.707107   0.000000 )  

     reciprocal axes: (cart. coord. in units 2 pi/alat)
               b(1) = ( -0.707107  0.707107  0.707107 )  
               b(2) = (  0.707107 -0.707107  0.707107 )  
               b(3) = (  0.707107  0.707107 -0.707107 )  


     PseudoPot. # 1 for Ge read from file:
     /home/modeler/qe_pseudo/Ge.pz-bhs.UPF
     MD5 check sum: 4f8fee77de72fb640d24dcbf01bda005
     Pseudo is Norm-conserving, Zval =  4.0
     Generated by new atomic code, or converted to UPF format
     Using radial grid of  291 points,  2 beta functions with: 
                l(1) =   0
                l(2) =   1

     atomic species   valence    mass     pseudopotential
        Ge             4.00    72.63000     Ge( 1.00)

     48 Sym. Ops., with inversion, found (24 have fractional translation)



   Cartesian axes

     site n.     atom                  positions (alat units)
         1           Ge  tau(   1) = (   0.0000000   0.0000000   0.0000000  )
         2           Ge  tau(   2) = (   0.3535536   0.3535536   0.3535536  )

     number of k points=     8
                       cart. coord. in units 2pi/alat
        k(    1) = (   0.0000000   0.0000000   0.0000000), wk =   0.0312500
        k(    2) = (   0.1767767   0.1767767  -0.1767767), wk =   0.2500000
        k(    3) = (  -0.3535534  -0.3535534   0.3535534), wk =   0.1250000
        k(    4) = (   0.3535534   0.0000000   0.0000000), wk =   0.1875000
        k(    5) = (  -0.1767767  -0.5303301   0.5303301), wk =   0.7500000
        k(    6) = (   0.0000000  -0.3535534   0.3535534), wk =   0.3750000
        k(    7) = (  -0.7071068   0.0000000   0.0000000), wk =   0.0937500
        k(    8) = (  -0.7071068   0.3535534   0.0000000), wk =   0.1875000

     Dense  grid:     8609 G-vectors     FFT dimensions: (  32,  32,  32)

     Estimated max dynamical RAM per process >       7.18 MB

     Initial potential from superposition of free atoms

     starting charge    6.99990, renormalised to    8.00000
     Starting wfcs are    8 randomized atomic wfcs

     total cpu time spent up to now is        0.1 secs

     Self-consistent Calculation

     iteration #  1     ecut=    35.00 Ry     beta= 0.50
     Davidson diagonalization with overlap
     ethr =  1.00E-02,  avg # of iterations =  1.2

     Threshold (ethr) on eigenvalues was too large:
     Diagonalizing with lowered threshold

     Davidson diagonalization with overlap
     ethr =  3.16E-04,  avg # of iterations =  2.4

     total cpu time spent up to now is        0.2 secs

     total energy              =     -15.99623485 Ry
     Harris-Foulkes estimate   =     -16.00004986 Ry
     estimated scf accuracy    <       0.02688855 Ry

     iteration #  2     ecut=    35.00 Ry     beta= 0.50
     Davidson diagonalization with overlap
     ethr =  3.36E-04,  avg # of iterations =  1.0

     total cpu time spent up to now is        0.3 secs

     total energy              =     -15.99514770 Ry
     Harris-Foulkes estimate   =     -15.99637699 Ry
     estimated scf accuracy    <       0.00646685 Ry

     iteration #  3     ecut=    35.00 Ry     beta= 0.50
     Davidson diagonalization with overlap
     ethr =  8.08E-05,  avg # of iterations =  1.0

     total cpu time spent up to now is        0.3 secs

     total energy              =     -15.99522763 Ry
     Harris-Foulkes estimate   =     -15.99523128 Ry
     estimated scf accuracy    <       0.00000736 Ry

     iteration #  4     ecut=    35.00 Ry     beta= 0.50
     Davidson diagonalization with overlap
     ethr =  9.20E-08,  avg # of iterations =  4.9

     total cpu time spent up to now is        0.4 secs

     total energy              =     -15.99525588 Ry
     Harris-Foulkes estimate   =     -15.99525614 Ry
     estimated scf accuracy    <       0.00000077 Ry

     iteration #  5     ecut=    35.00 Ry     beta= 0.50
     Davidson diagonalization with overlap
     ethr =  9.68E-09,  avg # of iterations =  2.2

     total cpu time spent up to now is        0.5 secs

     total energy              =     -15.99525590 Ry
     Harris-Foulkes estimate   =     -15.99525607 Ry
     estimated scf accuracy    <       0.00000030 Ry

     iteration #  6     ecut=    35.00 Ry     beta= 0.50
     Davidson diagonalization with overlap
     ethr =  3.73E-09,  avg # of iterations =  2.0

     total cpu time spent up to now is        0.5 secs

     End of self-consistent calculation

          k = 0.0000 0.0000 0.0000 (  1067 PWs)   bands (ev):

    -7.1319   5.4096   5.4096   5.4096

          k = 0.1768 0.1768-0.1768 (  1074 PWs)   bands (ev):

    -6.4408   0.7107   4.5641   4.5641

          k =-0.3536-0.3536 0.3536 (  1068 PWs)   bands (ev):

    -5.1747  -2.1575   4.0662   4.0662

          k = 0.3536 0.0000 0.0000 (  1062 PWs)   bands (ev):

    -6.1893   0.7026   3.4277   3.4277

          k =-0.1768-0.5303 0.5303 (  1076 PWs)   bands (ev):

    -4.7805  -1.9645   1.7307   3.0787

          k = 0.0000-0.3536 0.3536 (  1081 PWs)   bands (ev):

    -5.3649  -1.1148   1.5893   3.9596

          k =-0.7071 0.0000 0.0000 (  1090 PWs)   bands (ev):

    -3.4439  -3.4439   2.4220   2.4220

          k =-0.7071 0.3536 0.0000 (  1084 PWs)   bands (ev):

    -3.3500  -3.3499   1.5557   1.5557

     highest occupied level (ev):     5.4096

!    total energy              =     -15.99525594 Ry
     Harris-Foulkes estimate   =     -15.99525594 Ry
     estimated scf accuracy    <       0.00000001 Ry

     The total energy is the sum of the following terms:

     one-electron contribution =       3.55940729 Ry
     hartree contribution      =       1.21375969 Ry
     xc contribution           =      -4.65837390 Ry
     ewald contribution        =     -16.11004902 Ry

     convergence has been achieved in   6 iterations

     Forces acting on atoms (cartesian axes, Ry/au):

     atom    1 type  1   force =     0.00000000    0.00000000    0.00000000
     atom    2 type  1   force =     0.00000000    0.00000000    0.00000000

     Total force =     0.000000     Total SCF correction =     0.000000


     Computing stress (Cartesian axis) and pressure

          total   stress  (Ry/bohr**3)                   (kbar)     P=  -16.59
  -0.00011279   0.00000000   0.00000000        -16.59      0.00      0.00
   0.00000000  -0.00011279   0.00000000          0.00    -16.59      0.00
   0.00000000   0.00000000  -0.00011279          0.00      0.00    -16.59


     init_run     :      0.06s CPU      0.07s WALL (       1 calls)
     electrons    :      0.43s CPU      0.45s WALL (       1 calls)
     forces       :      0.00s CPU      0.01s WALL (       1 calls)
     stress       :      0.03s CPU      0.04s WALL (       1 calls)

     Called by init_run:
     wfcinit      :      0.04s CPU      0.04s WALL (       1 calls)
     potinit      :      0.00s CPU      0.00s WALL (       1 calls)
     hinit0       :      0.01s CPU      0.02s WALL (       1 calls)

     Called by electrons:
     c_bands      :      0.34s CPU      0.35s WALL (       7 calls)
     sum_band     :      0.07s CPU      0.08s WALL (       7 calls)
     v_of_rho     :      0.01s CPU      0.02s WALL (       7 calls)
     mix_rho      :      0.00s CPU      0.01s WALL (       7 calls)

     Called by c_bands:
     init_us_2    :      0.02s CPU      0.03s WALL (     136 calls)
     cegterg      :      0.32s CPU      0.32s WALL (      56 calls)

     Called by sum_band:

     Called by *egterg:
     h_psi        :      0.29s CPU      0.30s WALL (     182 calls)
     g_psi        :      0.00s CPU      0.00s WALL (     118 calls)
     cdiaghg      :      0.01s CPU      0.01s WALL (     166 calls)

     Called by h_psi:
     h_psi:pot    :      0.29s CPU      0.29s WALL (     182 calls)
     h_psi:calbec :      0.01s CPU      0.01s WALL (     182 calls)
     vloc_psi     :      0.26s CPU      0.27s WALL (     182 calls)
     add_vuspsi   :      0.01s CPU      0.01s WALL (     182 calls)

     General routines
     calbec       :      0.01s CPU      0.02s WALL (     222 calls)
     fft          :      0.01s CPU      0.01s WALL (      26 calls)
     ffts         :      0.00s CPU      0.00s WALL (       7 calls)
     fftw         :      0.22s CPU      0.23s WALL (    1580 calls)

     Parallel routines

     PWSCF        :      0.56s CPU      0.60s WALL


   This run was terminated on:   2: 2:12   7Oct2020            

=------------------------------------------------------------------------------=
   JOB DONE.
=------------------------------------------------------------------------------=
