
     Program PWSCF v.6.4.1 starts on  7Oct2020 at  4: 4: 1 

     This program is part of the open-source Quantum ESPRESSO suite
     for quantum simulation of materials; please cite
         "P. Giannozzi et al., J. Phys.:Condens. Matter 21 395502 (2009);
         "P. Giannozzi et al., J. Phys.:Condens. Matter 29 465901 (2017);
          URL http://www.quantum-espresso.org", 
     in publications or presentations arising from this work. More details at
     http://www.quantum-espresso.org/quote

     Parallel version (MPI), running on     1 processors

     MPI processes distributed on     1 nodes
     Waiting for input...
     Reading input from standard input
Warning: card &IONS ignored
Warning: card / ignored
Warning: card &CELL ignored
Warning: card / ignored

     Current dimensions of program PWSCF are:
     Max number of different atomic species (ntypx) = 10
     Max number of k-points (npk) =  40000
     Max angular momentum in pseudopotentials (lmaxx) =  3

     Subspace diagonalization in iterative solution of the eigenvalue problem:
     a serial algorithm will be used

     Message from routine setup:
     DEPRECATED: symmetry with ibrav=0, use correct ibrav instead

     G-vector sticks info
     --------------------
     sticks:   dense  smooth     PW     G-vecs:    dense   smooth      PW
     Sum         583     583    187                 9409     9409    1639



     bravais-lattice index     =            0
     lattice parameter (alat)  =       7.3159  a.u.
     unit-cell volume          =     276.8783 (a.u.)^3
     number of atoms/cell      =            2
     number of atomic types    =            1
     number of electrons       =         8.00
     number of Kohn-Sham states=            4
     kinetic-energy cutoff     =      40.0000  Ry
     charge density cutoff     =     160.0000  Ry
     convergence threshold     =      1.0E-07
     mixing beta               =       0.5000
     number of iterations used =            8  plain     mixing
     Exchange-correlation      = SLA PZ NOGX NOGC ( 1  1  0  0 0 0)

     celldm(1)=   7.315904  celldm(2)=   0.000000  celldm(3)=   0.000000
     celldm(4)=   0.000000  celldm(5)=   0.000000  celldm(6)=   0.000000

     crystal axes: (cart. coord. in units of alat)
               a(1) = (   0.000000   0.707107   0.707107 )  
               a(2) = (   0.707107   0.000000   0.707107 )  
               a(3) = (   0.707107   0.707107   0.000000 )  

     reciprocal axes: (cart. coord. in units 2 pi/alat)
               b(1) = ( -0.707107  0.707107  0.707107 )  
               b(2) = (  0.707107 -0.707107  0.707107 )  
               b(3) = (  0.707107  0.707107 -0.707107 )  


     PseudoPot. # 1 for Ge read from file:
     /home/modeler/qe_pseudo/Ge.pz-bhs.UPF
     MD5 check sum: 4f8fee77de72fb640d24dcbf01bda005
     Pseudo is Norm-conserving, Zval =  4.0
     Generated by new atomic code, or converted to UPF format
     Using radial grid of  291 points,  2 beta functions with: 
                l(1) =   0
                l(2) =   1

     atomic species   valence    mass     pseudopotential
        Ge             4.00    72.63000     Ge( 1.00)

     48 Sym. Ops., with inversion, found (24 have fractional translation)



   Cartesian axes

     site n.     atom                  positions (alat units)
         1           Ge  tau(   1) = (   0.0000000   0.0000000   0.0000000  )
         2           Ge  tau(   2) = (   0.3535534   0.3535534   0.3535534  )

     number of k points=    10
                       cart. coord. in units 2pi/alat
        k(    1) = (   0.0000000   0.0000000   0.0000000), wk =   0.0160000
        k(    2) = (   0.1414214   0.1414214  -0.1414214), wk =   0.1280000
        k(    3) = (   0.2828427   0.2828427  -0.2828427), wk =   0.1280000
        k(    4) = (   0.2828427   0.0000000   0.0000000), wk =   0.0960000
        k(    5) = (   0.4242641   0.1414214  -0.1414214), wk =   0.3840000
        k(    6) = (  -0.1414214  -0.4242641   0.4242641), wk =   0.3840000
        k(    7) = (   0.0000000  -0.2828427   0.2828427), wk =   0.1920000
        k(    8) = (   0.5656854   0.0000000   0.0000000), wk =   0.0960000
        k(    9) = (   0.0000000  -0.5656854   0.5656854), wk =   0.1920000
        k(   10) = (  -0.1414214  -0.4242641   0.7071068), wk =   0.3840000

     Dense  grid:     9409 G-vectors     FFT dimensions: (  32,  32,  32)

     Estimated max dynamical RAM per process >       7.79 MB

     Initial potential from superposition of free atoms

     starting charge    6.99990, renormalised to    8.00000
     Starting wfcs are    8 randomized atomic wfcs

     total cpu time spent up to now is        0.1 secs

     Self-consistent Calculation

     iteration #  1     ecut=    40.00 Ry     beta= 0.50
     Davidson diagonalization with overlap
     ethr =  1.00E-02,  avg # of iterations =  1.4

     Threshold (ethr) on eigenvalues was too large:
     Diagonalizing with lowered threshold

     Davidson diagonalization with overlap
     ethr =  2.79E-04,  avg # of iterations =  2.8

     total cpu time spent up to now is        0.3 secs

     total energy              =     -16.00408070 Ry
     Harris-Foulkes estimate   =     -16.00710233 Ry
     estimated scf accuracy    <       0.02462515 Ry

     iteration #  2     ecut=    40.00 Ry     beta= 0.50
     Davidson diagonalization with overlap
     ethr =  3.08E-04,  avg # of iterations =  1.0

     total cpu time spent up to now is        0.3 secs

     total energy              =     -16.00313149 Ry
     Harris-Foulkes estimate   =     -16.00414386 Ry
     estimated scf accuracy    <       0.00593423 Ry

     iteration #  3     ecut=    40.00 Ry     beta= 0.50
     Davidson diagonalization with overlap
     ethr =  7.42E-05,  avg # of iterations =  1.0

     total cpu time spent up to now is        0.4 secs

     total energy              =     -16.00317855 Ry
     Harris-Foulkes estimate   =     -16.00317861 Ry
     estimated scf accuracy    <       0.00000071 Ry

     iteration #  4     ecut=    40.00 Ry     beta= 0.50
     Davidson diagonalization with overlap
     ethr =  8.85E-09,  avg # of iterations =  4.9

     total cpu time spent up to now is        0.5 secs

     total energy              =     -16.00319544 Ry
     Harris-Foulkes estimate   =     -16.00319544 Ry
     estimated scf accuracy    <       0.00000027 Ry

     iteration #  5     ecut=    40.00 Ry     beta= 0.50
     Davidson diagonalization with overlap
     ethr =  3.39E-09,  avg # of iterations =  1.3

     total cpu time spent up to now is        0.6 secs

     End of self-consistent calculation

          k = 0.0000 0.0000 0.0000 (  1243 PWs)   bands (ev):

    -6.8211   6.4524   6.4524   6.4524

          k = 0.1414 0.1414-0.1414 (  1191 PWs)   bands (ev):

    -6.3336   2.6311   5.7314   5.7314

          k = 0.2828 0.2828-0.2828 (  1176 PWs)   bands (ev):

    -5.0503  -0.8929   5.0573   5.0573

          k = 0.2828 0.0000 0.0000 (  1191 PWs)   bands (ev):

    -6.1637   2.8099   4.6964   4.6964

          k = 0.4243 0.1414-0.1414 (  1189 PWs)   bands (ev):

    -5.0753  -0.0429   3.3203   4.0984

          k =-0.1414-0.4243 0.4243 (  1176 PWs)   bands (ev):

    -4.2512  -1.4385   2.4348   4.4017

          k = 0.0000-0.2828 0.2828 (  1187 PWs)   bands (ev):

    -5.5437   0.8476   2.9961   5.3955

          k = 0.5657 0.0000 0.0000 (  1190 PWs)   bands (ev):

    -4.2111  -1.0967   3.3098   3.3098

          k = 0.0000-0.5657 0.5657 (  1168 PWs)   bands (ev):

    -3.0564  -2.3841   1.8926   3.4379

          k =-0.1414-0.4243 0.7071 (  1183 PWs)   bands (ev):

    -3.8046  -1.4992   1.9629   3.0361

     highest occupied level (ev):     6.4524

!    total energy              =     -16.00319546 Ry
     Harris-Foulkes estimate   =     -16.00319544 Ry
     estimated scf accuracy    <       0.00000003 Ry

     The total energy is the sum of the following terms:

     one-electron contribution =       4.30660112 Ry
     hartree contribution      =       1.10497677 Ry
     xc contribution           =      -4.75390317 Ry
     ewald contribution        =     -16.66087019 Ry

     convergence has been achieved in   5 iterations

     Forces acting on atoms (cartesian axes, Ry/au):

     atom    1 type  1   force =    -0.00000000    0.00000000    0.00000000
     atom    2 type  1   force =     0.00000000   -0.00000000   -0.00000000

     Total force =     0.000000     Total SCF correction =     0.000000


     Computing stress (Cartesian axis) and pressure

          total   stress  (Ry/bohr**3)                   (kbar)     P=   63.23
   0.00042981  -0.00000000   0.00000000         63.23     -0.00      0.00
  -0.00000000   0.00042981   0.00000000         -0.00     63.23      0.00
   0.00000000   0.00000000   0.00042981          0.00      0.00     63.23


     init_run     :      0.08s CPU      0.08s WALL (       1 calls)
     electrons    :      0.49s CPU      0.49s WALL (       1 calls)
     forces       :      0.01s CPU      0.01s WALL (       1 calls)
     stress       :      0.04s CPU      0.05s WALL (       1 calls)

     Called by init_run:
     wfcinit      :      0.05s CPU      0.05s WALL (       1 calls)
     potinit      :      0.00s CPU      0.00s WALL (       1 calls)
     hinit0       :      0.02s CPU      0.02s WALL (       1 calls)

     Called by electrons:
     c_bands      :      0.39s CPU      0.39s WALL (       6 calls)
     sum_band     :      0.08s CPU      0.08s WALL (       6 calls)
     v_of_rho     :      0.01s CPU      0.01s WALL (       6 calls)
     mix_rho      :      0.00s CPU      0.01s WALL (       6 calls)

     Called by c_bands:
     init_us_2    :      0.03s CPU      0.03s WALL (     150 calls)
     cegterg      :      0.36s CPU      0.37s WALL (      60 calls)

     Called by sum_band:

     Called by *egterg:
     h_psi        :      0.33s CPU      0.34s WALL (     194 calls)
     g_psi        :      0.00s CPU      0.00s WALL (     124 calls)
     cdiaghg      :      0.01s CPU      0.01s WALL (     174 calls)

     Called by h_psi:
     h_psi:pot    :      0.33s CPU      0.33s WALL (     194 calls)
     h_psi:calbec :      0.02s CPU      0.02s WALL (     194 calls)
     vloc_psi     :      0.30s CPU      0.30s WALL (     194 calls)
     add_vuspsi   :      0.01s CPU      0.01s WALL (     194 calls)

     General routines
     calbec       :      0.02s CPU      0.02s WALL (     244 calls)
     fft          :      0.01s CPU      0.01s WALL (      23 calls)
     ffts         :      0.00s CPU      0.00s WALL (       6 calls)
     fftw         :      0.26s CPU      0.26s WALL (    1708 calls)

     Parallel routines

     PWSCF        :      0.65s CPU      0.67s WALL


   This run was terminated on:   4: 4: 2   7Oct2020            

=------------------------------------------------------------------------------=
   JOB DONE.
=------------------------------------------------------------------------------=
