
     Program PWSCF v.6.4.1 starts on  7Oct2020 at  4: 4: 8 

     This program is part of the open-source Quantum ESPRESSO suite
     for quantum simulation of materials; please cite
         "P. Giannozzi et al., J. Phys.:Condens. Matter 21 395502 (2009);
         "P. Giannozzi et al., J. Phys.:Condens. Matter 29 465901 (2017);
          URL http://www.quantum-espresso.org", 
     in publications or presentations arising from this work. More details at
     http://www.quantum-espresso.org/quote

     Parallel version (MPI), running on     1 processors

     MPI processes distributed on     1 nodes
     Waiting for input...
     Reading input from standard input
Warning: card &IONS ignored
Warning: card / ignored
Warning: card &CELL ignored
Warning: card / ignored

     Current dimensions of program PWSCF are:
     Max number of different atomic species (ntypx) = 10
     Max number of k-points (npk) =  40000
     Max angular momentum in pseudopotentials (lmaxx) =  3

     Subspace diagonalization in iterative solution of the eigenvalue problem:
     a serial algorithm will be used

     Message from routine setup:
     DEPRECATED: symmetry with ibrav=0, use correct ibrav instead

     G-vector sticks info
     --------------------
     sticks:   dense  smooth     PW     G-vecs:    dense   smooth      PW
     Sum         637     637    199                10417    10417    1807



     bravais-lattice index     =            0
     lattice parameter (alat)  =       7.5497  a.u.
     unit-cell volume          =     304.2860 (a.u.)^3
     number of atoms/cell      =            2
     number of atomic types    =            1
     number of electrons       =         8.00
     number of Kohn-Sham states=            4
     kinetic-energy cutoff     =      40.0000  Ry
     charge density cutoff     =     160.0000  Ry
     convergence threshold     =      1.0E-07
     mixing beta               =       0.5000
     number of iterations used =            8  plain     mixing
     Exchange-correlation      = SLA PZ NOGX NOGC ( 1  1  0  0 0 0)

     celldm(1)=   7.549746  celldm(2)=   0.000000  celldm(3)=   0.000000
     celldm(4)=   0.000000  celldm(5)=   0.000000  celldm(6)=   0.000000

     crystal axes: (cart. coord. in units of alat)
               a(1) = (   0.000000   0.707107   0.707107 )  
               a(2) = (   0.707107   0.000000   0.707107 )  
               a(3) = (   0.707107   0.707107   0.000000 )  

     reciprocal axes: (cart. coord. in units 2 pi/alat)
               b(1) = ( -0.707107  0.707107  0.707107 )  
               b(2) = (  0.707107 -0.707107  0.707107 )  
               b(3) = (  0.707107  0.707107 -0.707107 )  


     PseudoPot. # 1 for Ge read from file:
     /home/modeler/qe_pseudo/Ge.pz-bhs.UPF
     MD5 check sum: 4f8fee77de72fb640d24dcbf01bda005
     Pseudo is Norm-conserving, Zval =  4.0
     Generated by new atomic code, or converted to UPF format
     Using radial grid of  291 points,  2 beta functions with: 
                l(1) =   0
                l(2) =   1

     atomic species   valence    mass     pseudopotential
        Ge             4.00    72.63000     Ge( 1.00)

     48 Sym. Ops., with inversion, found (24 have fractional translation)



   Cartesian axes

     site n.     atom                  positions (alat units)
         1           Ge  tau(   1) = (   0.0000000   0.0000000   0.0000000  )
         2           Ge  tau(   2) = (   0.3535534   0.3535534   0.3535534  )

     number of k points=    10
                       cart. coord. in units 2pi/alat
        k(    1) = (   0.0000000   0.0000000   0.0000000), wk =   0.0160000
        k(    2) = (   0.1414214   0.1414214  -0.1414214), wk =   0.1280000
        k(    3) = (   0.2828427   0.2828427  -0.2828427), wk =   0.1280000
        k(    4) = (   0.2828427   0.0000000   0.0000000), wk =   0.0960000
        k(    5) = (   0.4242641   0.1414214  -0.1414214), wk =   0.3840000
        k(    6) = (  -0.1414214  -0.4242641   0.4242641), wk =   0.3840000
        k(    7) = (   0.0000000  -0.2828427   0.2828427), wk =   0.1920000
        k(    8) = (   0.5656854   0.0000000   0.0000000), wk =   0.0960000
        k(    9) = (   0.0000000  -0.5656854   0.5656854), wk =   0.1920000
        k(   10) = (  -0.1414214  -0.4242641   0.7071068), wk =   0.3840000

     Dense  grid:    10417 G-vectors     FFT dimensions: (  32,  32,  32)

     Estimated max dynamical RAM per process >       8.36 MB

     Initial potential from superposition of free atoms

     starting charge    6.99990, renormalised to    8.00000
     Starting wfcs are    8 randomized atomic wfcs

     total cpu time spent up to now is        0.1 secs

     Self-consistent Calculation

     iteration #  1     ecut=    40.00 Ry     beta= 0.50
     Davidson diagonalization with overlap
     ethr =  1.00E-02,  avg # of iterations =  1.3

     Threshold (ethr) on eigenvalues was too large:
     Diagonalizing with lowered threshold

     Davidson diagonalization with overlap
     ethr =  3.02E-04,  avg # of iterations =  2.8

     total cpu time spent up to now is        0.3 secs

     total energy              =     -16.00818717 Ry
     Harris-Foulkes estimate   =     -16.01197415 Ry
     estimated scf accuracy    <       0.02578204 Ry

     iteration #  2     ecut=    40.00 Ry     beta= 0.50
     Davidson diagonalization with overlap
     ethr =  3.22E-04,  avg # of iterations =  1.0

     total cpu time spent up to now is        0.4 secs

     total energy              =     -16.00710541 Ry
     Harris-Foulkes estimate   =     -16.00828593 Ry
     estimated scf accuracy    <       0.00611165 Ry

     iteration #  3     ecut=    40.00 Ry     beta= 0.50
     Davidson diagonalization with overlap
     ethr =  7.64E-05,  avg # of iterations =  1.0

     total cpu time spent up to now is        0.4 secs

     total energy              =     -16.00719021 Ry
     Harris-Foulkes estimate   =     -16.00719688 Ry
     estimated scf accuracy    <       0.00001220 Ry

     iteration #  4     ecut=    40.00 Ry     beta= 0.50
     Davidson diagonalization with overlap
     ethr =  1.52E-07,  avg # of iterations =  4.4

     total cpu time spent up to now is        0.5 secs

     total energy              =     -16.00721786 Ry
     Harris-Foulkes estimate   =     -16.00721789 Ry
     estimated scf accuracy    <       0.00000030 Ry

     iteration #  5     ecut=    40.00 Ry     beta= 0.50
     Davidson diagonalization with overlap
     ethr =  3.80E-09,  avg # of iterations =  2.4

     total cpu time spent up to now is        0.6 secs

     End of self-consistent calculation

          k = 0.0000 0.0000 0.0000 (  1291 PWs)   bands (ev):

    -7.1342   5.4486   5.4486   5.4486

          k = 0.1414 0.1414-0.1414 (  1315 PWs)   bands (ev):

    -6.6844   1.6782   4.8020   4.8020

          k = 0.2828 0.2828-0.2828 (  1299 PWs)   bands (ev):

    -5.5219  -1.5221   4.1817   4.1817

          k = 0.2828 0.0000 0.0000 (  1307 PWs)   bands (ev):

    -6.5268   1.6898   3.8789   3.8789

          k = 0.4243 0.1414-0.1414 (  1286 PWs)   bands (ev):

    -5.5314  -0.8586   2.5873   3.3288

          k =-0.1414-0.4243 0.4243 (  1295 PWs)   bands (ev):

    -4.8010  -2.0898   1.7803   3.5965

          k = 0.0000-0.2828 0.2828 (  1313 PWs)   bands (ev):

    -5.9600  -0.0468   2.3411   4.4891

          k = 0.5657 0.0000 0.0000 (  1290 PWs)   bands (ev):

    -4.7324  -1.8897   2.6119   2.6119

          k = 0.0000-0.5657 0.5657 (  1296 PWs)   bands (ev):

    -3.7017  -3.0547   1.3614   2.7265

          k =-0.1414-0.4243 0.7071 (  1294 PWs)   bands (ev):

    -4.3777  -2.2555   1.4155   2.3903

     highest occupied level (ev):     5.4486

!    total energy              =     -16.00721790 Ry
     Harris-Foulkes estimate   =     -16.00721790 Ry
     estimated scf accuracy    <       0.00000004 Ry

     The total energy is the sum of the following terms:

     one-electron contribution =       3.60355764 Ry
     hartree contribution      =       1.19263109 Ry
     xc contribution           =      -4.65858110 Ry
     ewald contribution        =     -16.14482554 Ry

     convergence has been achieved in   5 iterations

     Forces acting on atoms (cartesian axes, Ry/au):

     atom    1 type  1   force =     0.00000000    0.00000000    0.00000000
     atom    2 type  1   force =     0.00000000   -0.00000000    0.00000000

     Total force =     0.000000     Total SCF correction =     0.000000


     Computing stress (Cartesian axis) and pressure

          total   stress  (Ry/bohr**3)                   (kbar)     P=  -13.62
  -0.00009257   0.00000000   0.00000000        -13.62      0.00      0.00
   0.00000000  -0.00009257   0.00000000          0.00    -13.62      0.00
   0.00000000   0.00000000  -0.00009257          0.00      0.00    -13.62


     init_run     :      0.09s CPU      0.09s WALL (       1 calls)
     electrons    :      0.51s CPU      0.51s WALL (       1 calls)
     forces       :      0.01s CPU      0.01s WALL (       1 calls)
     stress       :      0.06s CPU      0.06s WALL (       1 calls)

     Called by init_run:
     wfcinit      :      0.06s CPU      0.06s WALL (       1 calls)
     potinit      :      0.00s CPU      0.00s WALL (       1 calls)
     hinit0       :      0.02s CPU      0.02s WALL (       1 calls)

     Called by electrons:
     c_bands      :      0.40s CPU      0.40s WALL (       6 calls)
     sum_band     :      0.09s CPU      0.09s WALL (       6 calls)
     v_of_rho     :      0.01s CPU      0.01s WALL (       6 calls)
     mix_rho      :      0.01s CPU      0.01s WALL (       6 calls)

     Called by c_bands:
     init_us_2    :      0.03s CPU      0.04s WALL (     150 calls)
     cegterg      :      0.37s CPU      0.37s WALL (      60 calls)

     Called by sum_band:

     Called by *egterg:
     h_psi        :      0.34s CPU      0.34s WALL (     199 calls)
     g_psi        :      0.00s CPU      0.00s WALL (     129 calls)
     cdiaghg      :      0.01s CPU      0.01s WALL (     179 calls)

     Called by h_psi:
     h_psi:pot    :      0.33s CPU      0.34s WALL (     199 calls)
     h_psi:calbec :      0.02s CPU      0.02s WALL (     199 calls)
     vloc_psi     :      0.30s CPU      0.30s WALL (     199 calls)
     add_vuspsi   :      0.01s CPU      0.02s WALL (     199 calls)

     General routines
     calbec       :      0.02s CPU      0.02s WALL (     249 calls)
     fft          :      0.01s CPU      0.01s WALL (      23 calls)
     ffts         :      0.00s CPU      0.00s WALL (       6 calls)
     fftw         :      0.26s CPU      0.27s WALL (    1670 calls)

     Parallel routines

     PWSCF        :      0.69s CPU      0.70s WALL


   This run was terminated on:   4: 4: 9   7Oct2020            

=------------------------------------------------------------------------------=
   JOB DONE.
=------------------------------------------------------------------------------=
