
     Program PWSCF v.6.4.1 starts on  7Oct2020 at  3:49:43 

     This program is part of the open-source Quantum ESPRESSO suite
     for quantum simulation of materials; please cite
         "P. Giannozzi et al., J. Phys.:Condens. Matter 21 395502 (2009);
         "P. Giannozzi et al., J. Phys.:Condens. Matter 29 465901 (2017);
          URL http://www.quantum-espresso.org", 
     in publications or presentations arising from this work. More details at
     http://www.quantum-espresso.org/quote

     Parallel version (MPI), running on     1 processors

     MPI processes distributed on     1 nodes
     Waiting for input...
     Reading input from standard input
Warning: card &IONS ignored
Warning: card / ignored
Warning: card &CELL ignored
Warning: card / ignored

     Current dimensions of program PWSCF are:
     Max number of different atomic species (ntypx) = 10
     Max number of k-points (npk) =  40000
     Max angular momentum in pseudopotentials (lmaxx) =  3

     Subspace diagonalization in iterative solution of the eigenvalue problem:
     a serial algorithm will be used

     Message from routine setup:
     DEPRECATED: symmetry with ibrav=0, use correct ibrav instead

     G-vector sticks info
     --------------------
     sticks:   dense  smooth     PW     G-vecs:    dense   smooth      PW
     Sum         673     673    211                11791    11791    1989



     bravais-lattice index     =            0
     lattice parameter (alat)  =       7.8838  a.u.
     unit-cell volume          =     346.4916 (a.u.)^3
     number of atoms/cell      =            2
     number of atomic types    =            1
     number of electrons       =         8.00
     number of Kohn-Sham states=            4
     kinetic-energy cutoff     =      40.0000  Ry
     charge density cutoff     =     160.0000  Ry
     convergence threshold     =      1.0E-07
     mixing beta               =       0.5000
     number of iterations used =            8  plain     mixing
     Exchange-correlation      = SLA PZ NOGX NOGC ( 1  1  0  0 0 0)

     celldm(1)=   7.883805  celldm(2)=   0.000000  celldm(3)=   0.000000
     celldm(4)=   0.000000  celldm(5)=   0.000000  celldm(6)=   0.000000

     crystal axes: (cart. coord. in units of alat)
               a(1) = (   0.000000   0.707107   0.707107 )  
               a(2) = (   0.707107   0.000000   0.707107 )  
               a(3) = (   0.707107   0.707107   0.000000 )  

     reciprocal axes: (cart. coord. in units 2 pi/alat)
               b(1) = ( -0.707107  0.707107  0.707107 )  
               b(2) = (  0.707107 -0.707107  0.707107 )  
               b(3) = (  0.707107  0.707107 -0.707107 )  


     PseudoPot. # 1 for Ge read from file:
     /home/modeler/qe_pseudo/Ge.pz-bhs.UPF
     MD5 check sum: 4f8fee77de72fb640d24dcbf01bda005
     Pseudo is Norm-conserving, Zval =  4.0
     Generated by new atomic code, or converted to UPF format
     Using radial grid of  291 points,  2 beta functions with: 
                l(1) =   0
                l(2) =   1

     atomic species   valence    mass     pseudopotential
        Ge             4.00    72.63000     Ge( 1.00)

     48 Sym. Ops., with inversion, found (24 have fractional translation)



   Cartesian axes

     site n.     atom                  positions (alat units)
         1           Ge  tau(   1) = (   0.0000000   0.0000000   0.0000000  )
         2           Ge  tau(   2) = (   0.3535534   0.3535534   0.3535534  )

     number of k points=    10
                       cart. coord. in units 2pi/alat
        k(    1) = (   0.0000000   0.0000000   0.0000000), wk =   0.0160000
        k(    2) = (   0.1414214   0.1414214  -0.1414214), wk =   0.1280000
        k(    3) = (   0.2828427   0.2828427  -0.2828427), wk =   0.1280000
        k(    4) = (   0.2828427   0.0000000   0.0000000), wk =   0.0960000
        k(    5) = (   0.4242641   0.1414214  -0.1414214), wk =   0.3840000
        k(    6) = (  -0.1414214  -0.4242641   0.4242641), wk =   0.3840000
        k(    7) = (   0.0000000  -0.2828427   0.2828427), wk =   0.1920000
        k(    8) = (   0.5656854   0.0000000   0.0000000), wk =   0.0960000
        k(    9) = (   0.0000000  -0.5656854   0.5656854), wk =   0.1920000
        k(   10) = (  -0.1414214  -0.4242641   0.7071068), wk =   0.3840000

     Dense  grid:    11791 G-vectors     FFT dimensions: (  32,  32,  32)

     Estimated max dynamical RAM per process >       9.17 MB

     Initial potential from superposition of free atoms

     starting charge    6.99990, renormalised to    8.00000
     Starting wfcs are    8 randomized atomic wfcs

     total cpu time spent up to now is        0.1 secs

     Self-consistent Calculation

     iteration #  1     ecut=    40.00 Ry     beta= 0.50
     Davidson diagonalization with overlap
     ethr =  1.00E-02,  avg # of iterations =  1.2

     Threshold (ethr) on eigenvalues was too large:
     Diagonalizing with lowered threshold

     Davidson diagonalization with overlap
     ethr =  3.37E-04,  avg # of iterations =  2.6

     total cpu time spent up to now is        0.3 secs

     total energy              =     -15.99510889 Ry
     Harris-Foulkes estimate   =     -16.00053734 Ry
     estimated scf accuracy    <       0.02793350 Ry

     iteration #  2     ecut=    40.00 Ry     beta= 0.50
     Davidson diagonalization with overlap
     ethr =  3.49E-04,  avg # of iterations =  1.0

     total cpu time spent up to now is        0.4 secs

     total energy              =     -15.99393927 Ry
     Harris-Foulkes estimate   =     -15.99542079 Ry
     estimated scf accuracy    <       0.00632006 Ry

     iteration #  3     ecut=    40.00 Ry     beta= 0.50
     Davidson diagonalization with overlap
     ethr =  7.90E-05,  avg # of iterations =  1.0

     total cpu time spent up to now is        0.4 secs

     total energy              =     -15.99416432 Ry
     Harris-Foulkes estimate   =     -15.99419505 Ry
     estimated scf accuracy    <       0.00005910 Ry

     iteration #  4     ecut=    40.00 Ry     beta= 0.50
     Davidson diagonalization with overlap
     ethr =  7.39E-07,  avg # of iterations =  3.6

     total cpu time spent up to now is        0.6 secs

     total energy              =     -15.99421615 Ry
     Harris-Foulkes estimate   =     -15.99421936 Ry
     estimated scf accuracy    <       0.00000607 Ry

     iteration #  5     ecut=    40.00 Ry     beta= 0.50
     Davidson diagonalization with overlap
     ethr =  7.59E-08,  avg # of iterations =  2.2

     total cpu time spent up to now is        0.6 secs

     total energy              =     -15.99421709 Ry
     Harris-Foulkes estimate   =     -15.99421720 Ry
     estimated scf accuracy    <       0.00000022 Ry

     iteration #  6     ecut=    40.00 Ry     beta= 0.50
     Davidson diagonalization with overlap
     ethr =  2.80E-09,  avg # of iterations =  3.5

     total cpu time spent up to now is        0.8 secs

     End of self-consistent calculation

          k = 0.0000 0.0000 0.0000 (  1459 PWs)   bands (ev):

    -7.5195   3.4054   4.2179   4.2179

          k = 0.1414 0.1414-0.1414 (  1471 PWs)   bands (ev):

    -7.1194   0.3910   3.6613   3.6613

          k = 0.2828 0.2828-0.2828 (  1480 PWs)   bands (ev):

    -6.1098  -2.3603   3.1098   3.1098

          k = 0.2828 0.0000 0.0000 (  1479 PWs)   bands (ev):

    -6.9781   0.2386   2.8734   2.8734

          k = 0.4243 0.1414-0.1414 (  1472 PWs)   bands (ev):

    -6.1027  -1.9210   1.7020   2.3839

          k =-0.1414-0.4243 0.4243 (  1491 PWs)   bands (ev):

    -5.4849  -2.9506   0.9927   2.6090

          k = 0.0000-0.2828 0.2828 (  1484 PWs)   bands (ev):

    -6.4801  -1.2089   1.5380   3.3789

          k = 0.5657 0.0000 0.0000 (  1480 PWs)   bands (ev):

    -5.3894  -2.8954   1.7561   1.7561

          k = 0.0000-0.5657 0.5657 (  1490 PWs)   bands (ev):

    -4.5092  -3.9054   0.7049   1.8541

          k =-0.1414-0.4243 0.7071 (  1476 PWs)   bands (ev):

    -5.0961  -3.2126   0.7426   1.5924

     highest occupied level (ev):     4.2179

!    total energy              =     -15.99421719 Ry
     Harris-Foulkes estimate   =     -15.99421720 Ry
     estimated scf accuracy    <          7.5E-09 Ry

     The total energy is the sum of the following terms:

     one-electron contribution =       2.68191297 Ry
     hartree contribution      =       1.32114743 Ry
     xc contribution           =      -4.53655483 Ry
     ewald contribution        =     -15.46072276 Ry

     convergence has been achieved in   6 iterations

     Forces acting on atoms (cartesian axes, Ry/au):

     atom    1 type  1   force =    -0.00000000   -0.00000000    0.00000000
     atom    2 type  1   force =     0.00000000    0.00000000   -0.00000000

     Total force =     0.000000     Total SCF correction =     0.000000


     Computing stress (Cartesian axis) and pressure

          total   stress  (Ry/bohr**3)                   (kbar)     P=  -70.60
  -0.00047992   0.00000000   0.00000000        -70.60      0.00      0.00
   0.00000000  -0.00047992   0.00000000          0.00    -70.60      0.00
   0.00000000   0.00000000  -0.00047992          0.00      0.00    -70.60


     init_run     :      0.09s CPU      0.10s WALL (       1 calls)
     electrons    :      0.63s CPU      0.64s WALL (       1 calls)
     forces       :      0.01s CPU      0.01s WALL (       1 calls)
     stress       :      0.06s CPU      0.06s WALL (       1 calls)

     Called by init_run:
     wfcinit      :      0.06s CPU      0.06s WALL (       1 calls)
     potinit      :      0.00s CPU      0.00s WALL (       1 calls)
     hinit0       :      0.02s CPU      0.02s WALL (       1 calls)

     Called by electrons:
     c_bands      :      0.49s CPU      0.50s WALL (       7 calls)
     sum_band     :      0.10s CPU      0.10s WALL (       7 calls)
     v_of_rho     :      0.01s CPU      0.02s WALL (       7 calls)
     mix_rho      :      0.01s CPU      0.01s WALL (       7 calls)

     Called by c_bands:
     init_us_2    :      0.04s CPU      0.04s WALL (     170 calls)
     cegterg      :      0.46s CPU      0.47s WALL (      70 calls)

     Called by sum_band:

     Called by *egterg:
     h_psi        :      0.40s CPU      0.41s WALL (     231 calls)
     g_psi        :      0.01s CPU      0.01s WALL (     151 calls)
     cdiaghg      :      0.01s CPU      0.01s WALL (     211 calls)

     Called by h_psi:
     h_psi:pot    :      0.40s CPU      0.41s WALL (     231 calls)
     h_psi:calbec :      0.02s CPU      0.02s WALL (     231 calls)
     vloc_psi     :      0.35s CPU      0.36s WALL (     231 calls)
     add_vuspsi   :      0.02s CPU      0.02s WALL (     231 calls)

     General routines
     calbec       :      0.03s CPU      0.03s WALL (     281 calls)
     fft          :      0.01s CPU      0.01s WALL (      26 calls)
     ffts         :      0.00s CPU      0.00s WALL (       7 calls)
     fftw         :      0.31s CPU      0.32s WALL (    1944 calls)

     Parallel routines

     PWSCF        :      0.81s CPU      0.84s WALL


   This run was terminated on:   3:49:44   7Oct2020            

=------------------------------------------------------------------------------=
   JOB DONE.
=------------------------------------------------------------------------------=
