
     Program PWSCF v.6.4.1 starts on  1Oct2020 at 21:24: 5 

     This program is part of the open-source Quantum ESPRESSO suite
     for quantum simulation of materials; please cite
         "P. Giannozzi et al., J. Phys.:Condens. Matter 21 395502 (2009);
         "P. Giannozzi et al., J. Phys.:Condens. Matter 29 465901 (2017);
          URL http://www.quantum-espresso.org", 
     in publications or presentations arising from this work. More details at
     http://www.quantum-espresso.org/quote

     Parallel version (MPI), running on     1 processors

     MPI processes distributed on     1 nodes
     Waiting for input...
     Reading input from standard input
Warning: card &IONS ignored
Warning: card / ignored
Warning: card &CELL ignored
Warning: card / ignored

     Current dimensions of program PWSCF are:
     Max number of different atomic species (ntypx) = 10
     Max number of k-points (npk) =  40000
     Max angular momentum in pseudopotentials (lmaxx) =  3

     Subspace diagonalization in iterative solution of the eigenvalue problem:
     a serial algorithm will be used

     Message from routine setup:
     DEPRECATED: symmetry with ibrav=0, use correct ibrav instead

     G-vector sticks info
     --------------------
     sticks:   dense  smooth     PW     G-vecs:    dense   smooth      PW
     Sum         859     859    253                16625    16625    2733



     bravais-lattice index     =            0
     lattice parameter (alat)  =       6.6812  a.u.
     unit-cell volume          =     210.8855 (a.u.)^3
     number of atoms/cell      =            2
     number of atomic types    =            1
     number of electrons       =         8.00
     number of Kohn-Sham states=            4
     kinetic-energy cutoff     =      70.0000  Ry
     charge density cutoff     =     280.0000  Ry
     convergence threshold     =      1.0E-07
     mixing beta               =       0.5000
     number of iterations used =            8  plain     mixing
     Exchange-correlation      = SLA PZ NOGX NOGC ( 1  1  0  0 0 0)

     celldm(1)=   6.681191  celldm(2)=   0.000000  celldm(3)=   0.000000
     celldm(4)=   0.000000  celldm(5)=   0.000000  celldm(6)=   0.000000

     crystal axes: (cart. coord. in units of alat)
               a(1) = (   0.000000   0.707107   0.707107 )  
               a(2) = (   0.707107   0.000000   0.707107 )  
               a(3) = (   0.707107   0.707107   0.000000 )  

     reciprocal axes: (cart. coord. in units 2 pi/alat)
               b(1) = ( -0.707107  0.707107  0.707107 )  
               b(2) = (  0.707107 -0.707107  0.707107 )  
               b(3) = (  0.707107  0.707107 -0.707107 )  


     PseudoPot. # 1 for Ge read from file:
     /home/modeler/qe_pseudo/Ge.pz-bhs.UPF
     MD5 check sum: 4f8fee77de72fb640d24dcbf01bda005
     Pseudo is Norm-conserving, Zval =  4.0
     Generated by new atomic code, or converted to UPF format
     Using radial grid of  291 points,  2 beta functions with: 
                l(1) =   0
                l(2) =   1

     atomic species   valence    mass     pseudopotential
        Ge             4.00    72.63000     Ge( 1.00)

     48 Sym. Ops., with inversion, found (24 have fractional translation)



   Cartesian axes

     site n.     atom                  positions (alat units)
         1           Ge  tau(   1) = (   0.0000000   0.0000000   0.0000000  )
         2           Ge  tau(   2) = (   0.3535534   0.3535534   0.3535534  )

     number of k points=     8
                       cart. coord. in units 2pi/alat
        k(    1) = (   0.0000000   0.0000000   0.0000000), wk =   0.0312500
        k(    2) = (   0.1767767   0.1767767  -0.1767767), wk =   0.2500000
        k(    3) = (  -0.3535534  -0.3535534   0.3535534), wk =   0.1250000
        k(    4) = (   0.3535534   0.0000000   0.0000000), wk =   0.1875000
        k(    5) = (  -0.1767767  -0.5303301   0.5303301), wk =   0.7500000
        k(    6) = (   0.0000000  -0.3535534   0.3535534), wk =   0.3750000
        k(    7) = (  -0.7071068   0.0000000   0.0000000), wk =   0.0937500
        k(    8) = (  -0.7071068   0.3535534   0.0000000), wk =   0.1875000

     Dense  grid:    16625 G-vectors     FFT dimensions: (  36,  36,  36)

     Estimated max dynamical RAM per process >      12.67 MB

     Initial potential from superposition of free atoms

     starting charge    6.99990, renormalised to    8.00000
     Starting wfcs are    8 randomized atomic wfcs

     total cpu time spent up to now is        0.2 secs

     Self-consistent Calculation

     iteration #  1     ecut=    70.00 Ry     beta= 0.50
     Davidson diagonalization with overlap
     ethr =  1.00E-02,  avg # of iterations =  1.9

     Threshold (ethr) on eigenvalues was too large:
     Diagonalizing with lowered threshold

     Davidson diagonalization with overlap
     ethr =  3.22E-04,  avg # of iterations =  2.9

     total cpu time spent up to now is        0.5 secs

     total energy              =     -15.87682963 Ry
     Harris-Foulkes estimate   =     -15.88113787 Ry
     estimated scf accuracy    <       0.02960091 Ry

     iteration #  2     ecut=    70.00 Ry     beta= 0.50
     Davidson diagonalization with overlap
     ethr =  3.70E-04,  avg # of iterations =  1.0

     total cpu time spent up to now is        0.7 secs

     total energy              =     -15.87600403 Ry
     Harris-Foulkes estimate   =     -15.87710113 Ry
     estimated scf accuracy    <       0.00650691 Ry

     iteration #  3     ecut=    70.00 Ry     beta= 0.50
     Davidson diagonalization with overlap
     ethr =  8.13E-05,  avg # of iterations =  1.0

     total cpu time spent up to now is        0.8 secs

     total energy              =     -15.87618651 Ry
     Harris-Foulkes estimate   =     -15.87621028 Ry
     estimated scf accuracy    <       0.00004860 Ry

     iteration #  4     ecut=    70.00 Ry     beta= 0.50
     Davidson diagonalization with overlap
     ethr =  6.07E-07,  avg # of iterations =  3.0

     total cpu time spent up to now is        1.0 secs

     total energy              =     -15.87622340 Ry
     Harris-Foulkes estimate   =     -15.87622345 Ry
     estimated scf accuracy    <       0.00000065 Ry

     iteration #  5     ecut=    70.00 Ry     beta= 0.50
     Davidson diagonalization with overlap
     ethr =  8.19E-09,  avg # of iterations =  2.2

     total cpu time spent up to now is        1.2 secs

     End of self-consistent calculation

          k = 0.0000 0.0000 0.0000 (  2085 PWs)   bands (ev):

    -5.7136   9.9759   9.9759   9.9759

          k = 0.1768 0.1768-0.1768 (  2085 PWs)   bands (ev):

    -4.7742   4.3429   8.7033   8.7033

          k =-0.3536-0.3536 0.3536 (  2060 PWs)   bands (ev):

    -2.8133   0.1257   8.0318   8.0318

          k = 0.3536 0.0000 0.0000 (  2085 PWs)   bands (ev):

    -4.4444   5.2320   6.9467   6.9467

          k =-0.1768-0.5303 0.5303 (  2092 PWs)   bands (ev):

    -2.3967   1.1531   4.6039   6.4831

          k = 0.0000-0.3536 0.3536 (  2085 PWs)   bands (ev):

    -3.2516   2.4088   4.2225   7.8206

          k =-0.7071 0.0000 0.0000 (  2100 PWs)   bands (ev):

    -0.6162  -0.6162   5.5255   5.5255

          k =-0.7071 0.3536 0.0000 (  2120 PWs)   bands (ev):

    -0.3479  -0.3479   4.0249   4.0249

     highest occupied level (ev):     9.9759

!    total energy              =     -15.87622351 Ry
     Harris-Foulkes estimate   =     -15.87622351 Ry
     estimated scf accuracy    <       0.00000002 Ry

     The total energy is the sum of the following terms:

     one-electron contribution =       6.54477624 Ry
     hartree contribution      =       0.88711383 Ry
     xc contribution           =      -5.06446077 Ry
     ewald contribution        =     -18.24365281 Ry

     convergence has been achieved in   5 iterations

     Forces acting on atoms (cartesian axes, Ry/au):

     atom    1 type  1   force =     0.00000000    0.00000000   -0.00000000
     atom    2 type  1   force =    -0.00000000   -0.00000000    0.00000000

     Total force =     0.000000     Total SCF correction =     0.000000


     Computing stress (Cartesian axis) and pressure

          total   stress  (Ry/bohr**3)                   (kbar)     P=  545.31
   0.00370695   0.00000000  -0.00000000        545.31      0.00     -0.00
   0.00000000   0.00370695  -0.00000000          0.00    545.31     -0.00
  -0.00000000  -0.00000000   0.00370695         -0.00     -0.00    545.31


     init_run     :      0.15s CPU      0.16s WALL (       1 calls)
     electrons    :      1.02s CPU      1.03s WALL (       1 calls)
     forces       :      0.01s CPU      0.01s WALL (       1 calls)
     stress       :      0.07s CPU      0.08s WALL (       1 calls)

     Called by init_run:
     wfcinit      :      0.11s CPU      0.11s WALL (       1 calls)
     potinit      :      0.01s CPU      0.01s WALL (       1 calls)
     hinit0       :      0.03s CPU      0.03s WALL (       1 calls)

     Called by electrons:
     c_bands      :      0.80s CPU      0.81s WALL (       6 calls)
     sum_band     :      0.18s CPU      0.19s WALL (       6 calls)
     v_of_rho     :      0.02s CPU      0.02s WALL (       6 calls)
     mix_rho      :      0.02s CPU      0.02s WALL (       6 calls)

     Called by c_bands:
     init_us_2    :      0.04s CPU      0.04s WALL (     120 calls)
     cegterg      :      0.77s CPU      0.77s WALL (      48 calls)

     Called by sum_band:

     Called by *egterg:
     h_psi        :      0.77s CPU      0.78s WALL (     152 calls)
     g_psi        :      0.01s CPU      0.01s WALL (      96 calls)
     cdiaghg      :      0.01s CPU      0.01s WALL (     136 calls)

     Called by h_psi:
     h_psi:pot    :      0.77s CPU      0.78s WALL (     152 calls)
     h_psi:calbec :      0.02s CPU      0.02s WALL (     152 calls)
     vloc_psi     :      0.73s CPU      0.73s WALL (     152 calls)
     add_vuspsi   :      0.02s CPU      0.02s WALL (     152 calls)

     General routines
     calbec       :      0.03s CPU      0.03s WALL (     192 calls)
     fft          :      0.03s CPU      0.03s WALL (      23 calls)
     ffts         :      0.01s CPU      0.01s WALL (       6 calls)
     fftw         :      0.74s CPU      0.75s WALL (    1308 calls)

     Parallel routines

     PWSCF        :      1.29s CPU      1.32s WALL


   This run was terminated on:  21:24: 6   1Oct2020            

=------------------------------------------------------------------------------=
   JOB DONE.
=------------------------------------------------------------------------------=
