
     Program PWSCF v.6.4.1 starts on  7Oct2020 at  2: 2:12 

     This program is part of the open-source Quantum ESPRESSO suite
     for quantum simulation of materials; please cite
         "P. Giannozzi et al., J. Phys.:Condens. Matter 21 395502 (2009);
         "P. Giannozzi et al., J. Phys.:Condens. Matter 29 465901 (2017);
          URL http://www.quantum-espresso.org", 
     in publications or presentations arising from this work. More details at
     http://www.quantum-espresso.org/quote

     Parallel version (MPI), running on     1 processors

     MPI processes distributed on     1 nodes
     Waiting for input...
     Reading input from standard input
Warning: card &IONS ignored
Warning: card / ignored
Warning: card &CELL ignored
Warning: card / ignored

     Current dimensions of program PWSCF are:
     Max number of different atomic species (ntypx) = 10
     Max number of k-points (npk) =  40000
     Max angular momentum in pseudopotentials (lmaxx) =  3

     Subspace diagonalization in iterative solution of the eigenvalue problem:
     a serial algorithm will be used

     Message from routine setup:
     DEPRECATED: symmetry with ibrav=0, use correct ibrav instead

     G-vector sticks info
     --------------------
     sticks:   dense  smooth     PW     G-vecs:    dense   smooth      PW
     Sum         559     559    163                 8657     8657    1459



     bravais-lattice index     =            0
     lattice parameter (alat)  =       7.6014  a.u.
     unit-cell volume          =     310.5743 (a.u.)^3
     number of atoms/cell      =            2
     number of atomic types    =            1
     number of electrons       =         8.00
     number of Kohn-Sham states=            4
     kinetic-energy cutoff     =      35.0000  Ry
     charge density cutoff     =     140.0000  Ry
     convergence threshold     =      1.0E-07
     mixing beta               =       0.5000
     number of iterations used =            8  plain     mixing
     Exchange-correlation      = SLA PZ NOGX NOGC ( 1  1  0  0 0 0)

     celldm(1)=   7.601398  celldm(2)=   0.000000  celldm(3)=   0.000000
     celldm(4)=   0.000000  celldm(5)=   0.000000  celldm(6)=   0.000000

     crystal axes: (cart. coord. in units of alat)
               a(1) = (   0.000000   0.707107   0.707107 )  
               a(2) = (   0.707107   0.000000   0.707107 )  
               a(3) = (   0.707107   0.707107   0.000000 )  

     reciprocal axes: (cart. coord. in units 2 pi/alat)
               b(1) = ( -0.707107  0.707107  0.707107 )  
               b(2) = (  0.707107 -0.707107  0.707107 )  
               b(3) = (  0.707107  0.707107 -0.707107 )  


     PseudoPot. # 1 for Ge read from file:
     /home/modeler/qe_pseudo/Ge.pz-bhs.UPF
     MD5 check sum: 4f8fee77de72fb640d24dcbf01bda005
     Pseudo is Norm-conserving, Zval =  4.0
     Generated by new atomic code, or converted to UPF format
     Using radial grid of  291 points,  2 beta functions with: 
                l(1) =   0
                l(2) =   1

     atomic species   valence    mass     pseudopotential
        Ge             4.00    72.63000     Ge( 1.00)

     24 Sym. Ops. (no inversion) found



   Cartesian axes

     site n.     atom                  positions (alat units)
         1           Ge  tau(   1) = (   0.0000000   0.0000000   0.0000000  )
         2           Ge  tau(   2) = (   0.3535524   0.3535524   0.3535524  )

     number of k points=     8
                       cart. coord. in units 2pi/alat
        k(    1) = (   0.0000000   0.0000000   0.0000000), wk =   0.0312500
        k(    2) = (   0.1767767   0.1767767  -0.1767767), wk =   0.2500000
        k(    3) = (  -0.3535534  -0.3535534   0.3535534), wk =   0.1250000
        k(    4) = (   0.3535534   0.0000000   0.0000000), wk =   0.1875000
        k(    5) = (  -0.1767767  -0.5303301   0.5303301), wk =   0.7500000
        k(    6) = (   0.0000000  -0.3535534   0.3535534), wk =   0.3750000
        k(    7) = (  -0.7071068   0.0000000   0.0000000), wk =   0.0937500
        k(    8) = (  -0.7071068   0.3535534   0.0000000), wk =   0.1875000

     Dense  grid:     8657 G-vectors     FFT dimensions: (  30,  30,  30)

     Estimated max dynamical RAM per process >       6.82 MB

     Initial potential from superposition of free atoms

     starting charge    6.99990, renormalised to    8.00000
     Starting wfcs are    8 randomized atomic wfcs

     total cpu time spent up to now is        0.1 secs

     Self-consistent Calculation

     iteration #  1     ecut=    35.00 Ry     beta= 0.50
     Davidson diagonalization with overlap
     ethr =  1.00E-02,  avg # of iterations =  1.2

     Threshold (ethr) on eigenvalues was too large:
     Diagonalizing with lowered threshold

     Davidson diagonalization with overlap
     ethr =  3.20E-04,  avg # of iterations =  2.6

     total cpu time spent up to now is        0.4 secs

     total energy              =     -15.99566517 Ry
     Harris-Foulkes estimate   =     -15.99962062 Ry
     estimated scf accuracy    <       0.02714786 Ry

     iteration #  2     ecut=    35.00 Ry     beta= 0.50
     Davidson diagonalization with overlap
     ethr =  3.39E-04,  avg # of iterations =  1.0

     total cpu time spent up to now is        0.5 secs

     total energy              =     -15.99452285 Ry
     Harris-Foulkes estimate   =     -15.99578217 Ry
     estimated scf accuracy    <       0.00648951 Ry

     iteration #  3     ecut=    35.00 Ry     beta= 0.50
     Davidson diagonalization with overlap
     ethr =  8.11E-05,  avg # of iterations =  1.0

     total cpu time spent up to now is        0.6 secs

     total energy              =     -15.99461002 Ry
     Harris-Foulkes estimate   =     -15.99461559 Ry
     estimated scf accuracy    <       0.00001055 Ry

     iteration #  4     ecut=    35.00 Ry     beta= 0.50
     Davidson diagonalization with overlap
     ethr =  1.32E-07,  avg # of iterations =  4.6

     total cpu time spent up to now is        0.9 secs

     total energy              =     -15.99464073 Ry
     Harris-Foulkes estimate   =     -15.99464083 Ry
     estimated scf accuracy    <       0.00000051 Ry

     iteration #  5     ecut=    35.00 Ry     beta= 0.50
     Davidson diagonalization with overlap
     ethr =  6.31E-09,  avg # of iterations =  3.4

     total cpu time spent up to now is        1.0 secs

     total energy              =     -15.99464078 Ry
     Harris-Foulkes estimate   =     -15.99464085 Ry
     estimated scf accuracy    <       0.00000013 Ry

     iteration #  6     ecut=    35.00 Ry     beta= 0.50
     Davidson diagonalization with overlap
     ethr =  1.60E-09,  avg # of iterations =  2.8

     total cpu time spent up to now is        1.2 secs

     End of self-consistent calculation

          k = 0.0000 0.0000 0.0000 (  1067 PWs)   bands (ev):

    -7.1756   5.2697   5.2697   5.2697

          k = 0.1768 0.1768-0.1768 (  1083 PWs)   bands (ev):

    -6.4932   0.5850   4.4372   4.4372

          k =-0.3536-0.3536 0.3536 (  1068 PWs)   bands (ev):

    -5.2482  -2.2379   3.9452   3.9452

          k = 0.3536 0.0000 0.0000 (  1094 PWs)   bands (ev):

    -6.2445   0.5541   3.3194   3.3194

          k =-0.1768-0.5303 0.5303 (  1088 PWs)   bands (ev):

    -4.8563  -2.0691   1.6449   2.9743

          k = 0.0000-0.3536 0.3536 (  1081 PWs)   bands (ev):

    -5.4321  -1.2313   1.5089   3.8413

          k =-0.7071 0.0000 0.0000 (  1106 PWs)   bands (ev):

    -3.5352  -3.5352   2.3268   2.3269

          k =-0.7071 0.3536 0.0000 (  1084 PWs)   bands (ev):

    -3.4453  -3.4452   1.4787   1.4787

     highest occupied level (ev):     5.2697

!    total energy              =     -15.99464080 Ry
     Harris-Foulkes estimate   =     -15.99464080 Ry
     estimated scf accuracy    <       0.00000002 Ry

     The total energy is the sum of the following terms:

     one-electron contribution =       3.45805829 Ry
     hartree contribution      =       1.22720208 Ry
     xc contribution           =      -4.64478261 Ry
     ewald contribution        =     -16.03511856 Ry

     convergence has been achieved in   6 iterations

     Forces acting on atoms (cartesian axes, Ry/au):

     atom    1 type  1   force =     0.00000000    0.00000000    0.00000000
     atom    2 type  1   force =    -0.00000000    0.00000000   -0.00000000

     Total force =     0.000000     Total SCF correction =     0.000000


     Computing stress (Cartesian axis) and pressure

          total   stress  (Ry/bohr**3)                   (kbar)     P=  -25.27
  -0.00017180   0.00000000  -0.00000000        -25.27      0.00     -0.00
  -0.00000000  -0.00017180   0.00000000         -0.00    -25.27      0.00
   0.00000000   0.00000000  -0.00017180          0.00      0.00    -25.27


     init_run     :      0.11s CPU      0.12s WALL (       1 calls)
     electrons    :      1.04s CPU      1.05s WALL (       1 calls)
     forces       :      0.01s CPU      0.01s WALL (       1 calls)
     stress       :      0.04s CPU      0.04s WALL (       1 calls)

     Called by init_run:
     wfcinit      :      0.08s CPU      0.09s WALL (       1 calls)
     potinit      :      0.00s CPU      0.01s WALL (       1 calls)
     hinit0       :      0.02s CPU      0.02s WALL (       1 calls)

     Called by electrons:
     c_bands      :      0.85s CPU      0.85s WALL (       7 calls)
     sum_band     :      0.17s CPU      0.17s WALL (       7 calls)
     v_of_rho     :      0.02s CPU      0.02s WALL (       7 calls)
     mix_rho      :      0.01s CPU      0.01s WALL (       7 calls)

     Called by c_bands:
     init_us_2    :      0.03s CPU      0.03s WALL (     136 calls)
     cegterg      :      0.82s CPU      0.83s WALL (      56 calls)

     Called by sum_band:

     Called by *egterg:
     h_psi        :      0.83s CPU      0.84s WALL (     197 calls)
     g_psi        :      0.00s CPU      0.00s WALL (     133 calls)
     cdiaghg      :      0.01s CPU      0.01s WALL (     181 calls)

     Called by h_psi:
     h_psi:pot    :      0.82s CPU      0.84s WALL (     197 calls)
     h_psi:calbec :      0.02s CPU      0.02s WALL (     197 calls)
     vloc_psi     :      0.79s CPU      0.81s WALL (     197 calls)
     add_vuspsi   :      0.01s CPU      0.01s WALL (     197 calls)

     General routines
     calbec       :      0.02s CPU      0.02s WALL (     237 calls)
     fft          :      0.03s CPU      0.04s WALL (      26 calls)
     ffts         :      0.01s CPU      0.01s WALL (       7 calls)
     fftw         :      0.85s CPU      0.86s WALL (    1620 calls)

     Parallel routines

     PWSCF        :      1.23s CPU      1.26s WALL


   This run was terminated on:   2: 2:13   7Oct2020            

=------------------------------------------------------------------------------=
   JOB DONE.
=------------------------------------------------------------------------------=
