
     Program PWSCF v.6.4.1 starts on  7Oct2020 at  4: 4:10 

     This program is part of the open-source Quantum ESPRESSO suite
     for quantum simulation of materials; please cite
         "P. Giannozzi et al., J. Phys.:Condens. Matter 21 395502 (2009);
         "P. Giannozzi et al., J. Phys.:Condens. Matter 29 465901 (2017);
          URL http://www.quantum-espresso.org", 
     in publications or presentations arising from this work. More details at
     http://www.quantum-espresso.org/quote

     Parallel version (MPI), running on     1 processors

     MPI processes distributed on     1 nodes
     Waiting for input...
     Reading input from standard input
Warning: card &IONS ignored
Warning: card / ignored
Warning: card &CELL ignored
Warning: card / ignored

     Current dimensions of program PWSCF are:
     Max number of different atomic species (ntypx) = 10
     Max number of k-points (npk) =  40000
     Max angular momentum in pseudopotentials (lmaxx) =  3

     Subspace diagonalization in iterative solution of the eigenvalue problem:
     a serial algorithm will be used

     Message from routine setup:
     DEPRECATED: symmetry with ibrav=0, use correct ibrav instead

     G-vector sticks info
     --------------------
     sticks:   dense  smooth     PW     G-vecs:    dense   smooth      PW
     Sum         637     637    199                10489    10489    1807



     bravais-lattice index     =            0
     lattice parameter (alat)  =       7.5832  a.u.
     unit-cell volume          =     308.3431 (a.u.)^3
     number of atoms/cell      =            2
     number of atomic types    =            1
     number of electrons       =         8.00
     number of Kohn-Sham states=            4
     kinetic-energy cutoff     =      40.0000  Ry
     charge density cutoff     =     160.0000  Ry
     convergence threshold     =      1.0E-07
     mixing beta               =       0.5000
     number of iterations used =            8  plain     mixing
     Exchange-correlation      = SLA PZ NOGX NOGC ( 1  1  0  0 0 0)

     celldm(1)=   7.583152  celldm(2)=   0.000000  celldm(3)=   0.000000
     celldm(4)=   0.000000  celldm(5)=   0.000000  celldm(6)=   0.000000

     crystal axes: (cart. coord. in units of alat)
               a(1) = (   0.000000   0.707107   0.707107 )  
               a(2) = (   0.707107   0.000000   0.707107 )  
               a(3) = (   0.707107   0.707107   0.000000 )  

     reciprocal axes: (cart. coord. in units 2 pi/alat)
               b(1) = ( -0.707107  0.707107  0.707107 )  
               b(2) = (  0.707107 -0.707107  0.707107 )  
               b(3) = (  0.707107  0.707107 -0.707107 )  


     PseudoPot. # 1 for Ge read from file:
     /home/modeler/qe_pseudo/Ge.pz-bhs.UPF
     MD5 check sum: 4f8fee77de72fb640d24dcbf01bda005
     Pseudo is Norm-conserving, Zval =  4.0
     Generated by new atomic code, or converted to UPF format
     Using radial grid of  291 points,  2 beta functions with: 
                l(1) =   0
                l(2) =   1

     atomic species   valence    mass     pseudopotential
        Ge             4.00    72.63000     Ge( 1.00)

     48 Sym. Ops., with inversion, found (24 have fractional translation)



   Cartesian axes

     site n.     atom                  positions (alat units)
         1           Ge  tau(   1) = (   0.0000000   0.0000000   0.0000000  )
         2           Ge  tau(   2) = (   0.3535534   0.3535534   0.3535534  )

     number of k points=    10
                       cart. coord. in units 2pi/alat
        k(    1) = (   0.0000000   0.0000000   0.0000000), wk =   0.0160000
        k(    2) = (   0.1414214   0.1414214  -0.1414214), wk =   0.1280000
        k(    3) = (   0.2828427   0.2828427  -0.2828427), wk =   0.1280000
        k(    4) = (   0.2828427   0.0000000   0.0000000), wk =   0.0960000
        k(    5) = (   0.4242641   0.1414214  -0.1414214), wk =   0.3840000
        k(    6) = (  -0.1414214  -0.4242641   0.4242641), wk =   0.3840000
        k(    7) = (   0.0000000  -0.2828427   0.2828427), wk =   0.1920000
        k(    8) = (   0.5656854   0.0000000   0.0000000), wk =   0.0960000
        k(    9) = (   0.0000000  -0.5656854   0.5656854), wk =   0.1920000
        k(   10) = (  -0.1414214  -0.4242641   0.7071068), wk =   0.3840000

     Dense  grid:    10489 G-vectors     FFT dimensions: (  32,  32,  32)

     Estimated max dynamical RAM per process >       8.42 MB

     Initial potential from superposition of free atoms

     starting charge    6.99990, renormalised to    8.00000
     Starting wfcs are    8 randomized atomic wfcs

     total cpu time spent up to now is        0.1 secs

     Self-consistent Calculation

     iteration #  1     ecut=    40.00 Ry     beta= 0.50
     Davidson diagonalization with overlap
     ethr =  1.00E-02,  avg # of iterations =  1.3

     Threshold (ethr) on eigenvalues was too large:
     Diagonalizing with lowered threshold

     Davidson diagonalization with overlap
     ethr =  3.06E-04,  avg # of iterations =  2.8

     total cpu time spent up to now is        0.3 secs

     total energy              =     -16.00769447 Ry
     Harris-Foulkes estimate   =     -16.01162051 Ry
     estimated scf accuracy    <       0.02600249 Ry

     iteration #  2     ecut=    40.00 Ry     beta= 0.50
     Davidson diagonalization with overlap
     ethr =  3.25E-04,  avg # of iterations =  1.0

     total cpu time spent up to now is        0.3 secs

     total energy              =     -16.00660016 Ry
     Harris-Foulkes estimate   =     -16.00781113 Ry
     estimated scf accuracy    <       0.00614496 Ry

     iteration #  3     ecut=    40.00 Ry     beta= 0.50
     Davidson diagonalization with overlap
     ethr =  7.68E-05,  avg # of iterations =  1.0

     total cpu time spent up to now is        0.4 secs

     total energy              =     -16.00669616 Ry
     Harris-Foulkes estimate   =     -16.00670456 Ry
     estimated scf accuracy    <       0.00001526 Ry

     iteration #  4     ecut=    40.00 Ry     beta= 0.50
     Davidson diagonalization with overlap
     ethr =  1.91E-07,  avg # of iterations =  4.2

     total cpu time spent up to now is        0.5 secs

     total energy              =     -16.00672687 Ry
     Harris-Foulkes estimate   =     -16.00672703 Ry
     estimated scf accuracy    <       0.00000055 Ry

     iteration #  5     ecut=    40.00 Ry     beta= 0.50
     Davidson diagonalization with overlap
     ethr =  6.92E-09,  avg # of iterations =  2.2

     total cpu time spent up to now is        0.6 secs

     End of self-consistent calculation

          k = 0.0000 0.0000 0.0000 (  1363 PWs)   bands (ev):

    -7.1763   5.3148   5.3148   5.3148

          k = 0.1414 0.1414-0.1414 (  1324 PWs)   bands (ev):

    -6.7317   1.5456   4.6781   4.6781

          k = 0.2828 0.2828-0.2828 (  1326 PWs)   bands (ev):

    -5.5856  -1.6093   4.0651   4.0651

          k = 0.2828 0.0000 0.0000 (  1319 PWs)   bands (ev):

    -6.5758   1.5367   3.7698   3.7698

          k = 0.4243 0.1414-0.1414 (  1308 PWs)   bands (ev):

    -5.5931  -0.9705   2.4904   3.2261

          k =-0.1414-0.4243 0.4243 (  1313 PWs)   bands (ev):

    -4.8750  -2.1799   1.6939   3.4891

          k = 0.0000-0.2828 0.2828 (  1326 PWs)   bands (ev):

    -6.0163  -0.1693   2.2539   4.3684

          k = 0.5657 0.0000 0.0000 (  1306 PWs)   bands (ev):

    -4.8030  -1.9972   2.5189   2.5189

          k = 0.0000-0.5657 0.5657 (  1322 PWs)   bands (ev):

    -3.7887  -3.1457   1.2904   2.6317

          k =-0.1414-0.4243 0.7071 (  1306 PWs)   bands (ev):

    -4.4551  -2.3579   1.3425   2.3039

     highest occupied level (ev):     5.3148

!    total energy              =     -16.00672693 Ry
     Harris-Foulkes estimate   =     -16.00672696 Ry
     estimated scf accuracy    <       0.00000010 Ry

     The total energy is the sum of the following terms:

     one-electron contribution =       3.50731124 Ry
     hartree contribution      =       1.20532857 Ry
     xc contribution           =      -4.64566378 Ry
     ewald contribution        =     -16.07370296 Ry

     convergence has been achieved in   5 iterations

     Forces acting on atoms (cartesian axes, Ry/au):

     atom    1 type  1   force =     0.00000000    0.00000000    0.00000000
     atom    2 type  1   force =     0.00000000   -0.00000000    0.00000000

     Total force =     0.000000     Total SCF correction =     0.000000


     Computing stress (Cartesian axis) and pressure

          total   stress  (Ry/bohr**3)                   (kbar)     P=  -21.93
  -0.00014907  -0.00000000  -0.00000000        -21.93     -0.00     -0.00
  -0.00000000  -0.00014907  -0.00000000         -0.00    -21.93     -0.00
  -0.00000000  -0.00000000  -0.00014907         -0.00     -0.00    -21.93


     init_run     :      0.08s CPU      0.09s WALL (       1 calls)
     electrons    :      0.50s CPU      0.50s WALL (       1 calls)
     forces       :      0.01s CPU      0.01s WALL (       1 calls)
     stress       :      0.06s CPU      0.06s WALL (       1 calls)

     Called by init_run:
     wfcinit      :      0.06s CPU      0.06s WALL (       1 calls)
     potinit      :      0.00s CPU      0.00s WALL (       1 calls)
     hinit0       :      0.02s CPU      0.02s WALL (       1 calls)

     Called by electrons:
     c_bands      :      0.39s CPU      0.39s WALL (       6 calls)
     sum_band     :      0.08s CPU      0.08s WALL (       6 calls)
     v_of_rho     :      0.01s CPU      0.01s WALL (       6 calls)
     mix_rho      :      0.01s CPU      0.01s WALL (       6 calls)

     Called by c_bands:
     init_us_2    :      0.03s CPU      0.03s WALL (     150 calls)
     cegterg      :      0.37s CPU      0.37s WALL (      60 calls)

     Called by sum_band:

     Called by *egterg:
     h_psi        :      0.34s CPU      0.34s WALL (     195 calls)
     g_psi        :      0.00s CPU      0.00s WALL (     125 calls)
     cdiaghg      :      0.01s CPU      0.01s WALL (     175 calls)

     Called by h_psi:
     h_psi:pot    :      0.33s CPU      0.33s WALL (     195 calls)
     h_psi:calbec :      0.02s CPU      0.02s WALL (     195 calls)
     vloc_psi     :      0.30s CPU      0.30s WALL (     195 calls)
     add_vuspsi   :      0.02s CPU      0.02s WALL (     195 calls)

     General routines
     calbec       :      0.02s CPU      0.02s WALL (     245 calls)
     fft          :      0.01s CPU      0.01s WALL (      23 calls)
     ffts         :      0.00s CPU      0.00s WALL (       6 calls)
     fftw         :      0.26s CPU      0.26s WALL (    1670 calls)

     Parallel routines

     PWSCF        :      0.67s CPU      0.68s WALL


   This run was terminated on:   4: 4:10   7Oct2020            

=------------------------------------------------------------------------------=
   JOB DONE.
=------------------------------------------------------------------------------=
