
     Program PWSCF v.6.4.1 starts on  2Oct2020 at  0:15:42 

     This program is part of the open-source Quantum ESPRESSO suite
     for quantum simulation of materials; please cite
         "P. Giannozzi et al., J. Phys.:Condens. Matter 21 395502 (2009);
         "P. Giannozzi et al., J. Phys.:Condens. Matter 29 465901 (2017);
          URL http://www.quantum-espresso.org", 
     in publications or presentations arising from this work. More details at
     http://www.quantum-espresso.org/quote

     Parallel version (MPI), running on     1 processors

     MPI processes distributed on     1 nodes
     Waiting for input...
     Reading input from standard input
Warning: card &IONS ignored
Warning: card / ignored
Warning: card &CELL ignored
Warning: card / ignored

     Current dimensions of program PWSCF are:
     Max number of different atomic species (ntypx) = 10
     Max number of k-points (npk) =  40000
     Max angular momentum in pseudopotentials (lmaxx) =  3

     Subspace diagonalization in iterative solution of the eigenvalue problem:
     a serial algorithm will be used

     Message from routine setup:
     DEPRECATED: symmetry with ibrav=0, use correct ibrav instead

     G-vector sticks info
     --------------------
     sticks:   dense  smooth     PW     G-vecs:    dense   smooth      PW
     Sum         121     121     55                  893      893     259



     bravais-lattice index     =            0
     lattice parameter (alat)  =       6.6812  a.u.
     unit-cell volume          =     210.8855 (a.u.)^3
     number of atoms/cell      =            2
     number of atomic types    =            1
     number of electrons       =         8.00
     number of Kohn-Sham states=            4
     kinetic-energy cutoff     =      10.0000  Ry
     charge density cutoff     =      40.0000  Ry
     convergence threshold     =      1.0E-07
     mixing beta               =       0.5000
     number of iterations used =            8  plain     mixing
     Exchange-correlation      = SLA PZ NOGX NOGC ( 1  1  0  0 0 0)

     celldm(1)=   6.681191  celldm(2)=   0.000000  celldm(3)=   0.000000
     celldm(4)=   0.000000  celldm(5)=   0.000000  celldm(6)=   0.000000

     crystal axes: (cart. coord. in units of alat)
               a(1) = (   0.000000   0.707107   0.707107 )  
               a(2) = (   0.707107   0.000000   0.707107 )  
               a(3) = (   0.707107   0.707107   0.000000 )  

     reciprocal axes: (cart. coord. in units 2 pi/alat)
               b(1) = ( -0.707107  0.707107  0.707107 )  
               b(2) = (  0.707107 -0.707107  0.707107 )  
               b(3) = (  0.707107  0.707107 -0.707107 )  


     PseudoPot. # 1 for Ge read from file:
     /home/modeler/qe_pseudo/Ge.pz-bhs.UPF
     MD5 check sum: 4f8fee77de72fb640d24dcbf01bda005
     Pseudo is Norm-conserving, Zval =  4.0
     Generated by new atomic code, or converted to UPF format
     Using radial grid of  291 points,  2 beta functions with: 
                l(1) =   0
                l(2) =   1

     atomic species   valence    mass     pseudopotential
        Ge             4.00    72.63000     Ge( 1.00)

     48 Sym. Ops., with inversion, found (24 have fractional translation)



   Cartesian axes

     site n.     atom                  positions (alat units)
         1           Ge  tau(   1) = (   0.0000000   0.0000000   0.0000000  )
         2           Ge  tau(   2) = (   0.3535534   0.3535534   0.3535534  )

     number of k points=    16
                       cart. coord. in units 2pi/alat
        k(    1) = (   0.0000000   0.0000000   0.0000000), wk =   0.0092593
        k(    2) = (   0.1178511   0.1178511  -0.1178511), wk =   0.0740741
        k(    3) = (   0.2357023   0.2357023  -0.2357023), wk =   0.0740741
        k(    4) = (  -0.3535534  -0.3535534   0.3535534), wk =   0.0370370
        k(    5) = (   0.2357023   0.0000000   0.0000000), wk =   0.0555556
        k(    6) = (   0.3535534   0.1178511  -0.1178511), wk =   0.2222222
        k(    7) = (  -0.2357023  -0.4714045   0.4714045), wk =   0.2222222
        k(    8) = (  -0.1178511  -0.3535534   0.3535534), wk =   0.2222222
        k(    9) = (   0.0000000  -0.2357023   0.2357023), wk =   0.1111111
        k(   10) = (   0.4714045   0.0000000   0.0000000), wk =   0.0555556
        k(   11) = (  -0.1178511  -0.5892557   0.5892557), wk =   0.2222222
        k(   12) = (  -0.0000000  -0.4714045   0.4714045), wk =   0.1111111
        k(   13) = (  -0.7071068   0.0000000   0.0000000), wk =   0.0277778
        k(   14) = (  -0.2357023  -0.4714045   0.7071068), wk =   0.2222222
        k(   15) = (  -0.1178511  -0.3535534   0.5892557), wk =   0.2222222
        k(   16) = (  -0.7071068   0.2357023   0.0000000), wk =   0.1111111

     Dense  grid:      893 G-vectors     FFT dimensions: (  16,  16,  16)

     Estimated max dynamical RAM per process >       0.90 MB

     Initial potential from superposition of free atoms

     starting charge    6.99990, renormalised to    8.00000
     Starting wfcs are    8 randomized atomic wfcs

     total cpu time spent up to now is        0.1 secs

     Self-consistent Calculation

     iteration #  1     ecut=    10.00 Ry     beta= 0.50
     Davidson diagonalization with overlap
     ethr =  1.00E-02,  avg # of iterations =  1.6

     Threshold (ethr) on eigenvalues was too large:
     Diagonalizing with lowered threshold

     Davidson diagonalization with overlap
     ethr =  2.88E-04,  avg # of iterations =  2.7

     total cpu time spent up to now is        0.1 secs

     total energy              =     -15.85857263 Ry
     Harris-Foulkes estimate   =     -15.86117534 Ry
     estimated scf accuracy    <       0.02690743 Ry

     iteration #  2     ecut=    10.00 Ry     beta= 0.50
     Davidson diagonalization with overlap
     ethr =  3.36E-04,  avg # of iterations =  1.0

     total cpu time spent up to now is        0.1 secs

     total energy              =     -15.85804086 Ry
     Harris-Foulkes estimate   =     -15.85875752 Ry
     estimated scf accuracy    <       0.00605996 Ry

     iteration #  3     ecut=    10.00 Ry     beta= 0.50
     Davidson diagonalization with overlap
     ethr =  7.57E-05,  avg # of iterations =  1.1

     total cpu time spent up to now is        0.1 secs

     total energy              =     -15.85813822 Ry
     Harris-Foulkes estimate   =     -15.85815507 Ry
     estimated scf accuracy    <       0.00003532 Ry

     iteration #  4     ecut=    10.00 Ry     beta= 0.50
     Davidson diagonalization with overlap
     ethr =  4.41E-07,  avg # of iterations =  2.8

     total cpu time spent up to now is        0.1 secs

     total energy              =     -15.85815804 Ry
     Harris-Foulkes estimate   =     -15.85815804 Ry
     estimated scf accuracy    <       0.00000013 Ry

     iteration #  5     ecut=    10.00 Ry     beta= 0.50
     Davidson diagonalization with overlap
     ethr =  1.61E-09,  avg # of iterations =  3.2

     total cpu time spent up to now is        0.2 secs

     End of self-consistent calculation

          k = 0.0000 0.0000 0.0000 (   113 PWs)   bands (ev):

    -5.6934   9.9767   9.9767   9.9767

          k = 0.1179 0.1179-0.1179 (   116 PWs)   bands (ev):

    -5.2792   6.5335   9.2006   9.2006

          k = 0.2357 0.2357-0.2357 (   111 PWs)   bands (ev):

    -4.0563   2.4294   8.3467   8.3467

          k =-0.3536-0.3536 0.3536 (   108 PWs)   bands (ev):

    -2.8087   0.1504   8.0555   8.0555

          k = 0.2357 0.0000 0.0000 (   113 PWs)   bands (ev):

    -5.1385   7.3064   8.0128   8.0128

          k = 0.3536 0.1179-0.1179 (   115 PWs)   bands (ev):

    -4.1672   3.7716   6.9173   7.1838

          k =-0.2357-0.4714 0.4714 (   115 PWs)   bands (ev):

    -2.6465   0.7233   5.7930   7.1476

          k =-0.1179-0.3536 0.3536 (   115 PWs)   bands (ev):

    -3.1536   1.5669   5.3656   7.8823

          k = 0.0000-0.2357 0.2357 (   111 PWs)   bands (ev):

    -4.5840   4.8135   6.1684   9.0493

          k = 0.4714 0.0000 0.0000 (   113 PWs)   bands (ev):

    -3.4411   3.1733   6.1852   6.1852

          k =-0.1179-0.5893 0.5893 (   108 PWs)   bands (ev):

    -1.9575   1.0599   4.3959   5.9857

          k =-0.0000-0.4714 0.4714 (   116 PWs)   bands (ev):

    -1.6763   0.7383   3.2741   6.6425

          k =-0.7071 0.0000 0.0000 (   116 PWs)   bands (ev):

    -0.6089  -0.6089   5.5463   5.5463

          k =-0.2357-0.4714 0.7071 (   110 PWs)   bands (ev):

    -2.9369   2.2682   4.5055   6.3398

          k =-0.1179-0.3536 0.5893 (   112 PWs)   bands (ev):

    -1.6412   0.5836   3.9251   5.6282

          k =-0.7071 0.2357 0.0000 (   110 PWs)   bands (ev):

    -0.4005  -0.4005   4.3579   4.3579

     highest occupied level (ev):     9.9767

!    total energy              =     -15.85815818 Ry
     Harris-Foulkes estimate   =     -15.85815818 Ry
     estimated scf accuracy    <          7.2E-09 Ry

     The total energy is the sum of the following terms:

     one-electron contribution =       6.57949067 Ry
     hartree contribution      =       0.85531148 Ry
     xc contribution           =      -5.04930752 Ry
     ewald contribution        =     -18.24365282 Ry

     convergence has been achieved in   5 iterations

     Forces acting on atoms (cartesian axes, Ry/au):

     atom    1 type  1   force =     0.00000000    0.00000000    0.00000000
     atom    2 type  1   force =     0.00000000   -0.00000000   -0.00000000

     Total force =     0.000000     Total SCF correction =     0.000000


     Computing stress (Cartesian axis) and pressure

          total   stress  (Ry/bohr**3)                   (kbar)     P=  481.43
   0.00327272  -0.00000000  -0.00000000        481.43     -0.00     -0.00
  -0.00000000   0.00327272   0.00000000         -0.00    481.43      0.00
  -0.00000000   0.00000000   0.00327272         -0.00      0.00    481.43


     init_run     :      0.02s CPU      0.02s WALL (       1 calls)
     electrons    :      0.10s CPU      0.11s WALL (       1 calls)
     forces       :      0.00s CPU      0.00s WALL (       1 calls)
     stress       :      0.01s CPU      0.01s WALL (       1 calls)

     Called by init_run:
     wfcinit      :      0.01s CPU      0.01s WALL (       1 calls)
     potinit      :      0.00s CPU      0.00s WALL (       1 calls)
     hinit0       :      0.01s CPU      0.01s WALL (       1 calls)

     Called by electrons:
     c_bands      :      0.09s CPU      0.09s WALL (       6 calls)
     sum_band     :      0.01s CPU      0.02s WALL (       6 calls)
     v_of_rho     :      0.00s CPU      0.00s WALL (       6 calls)
     mix_rho      :      0.00s CPU      0.00s WALL (       6 calls)

     Called by c_bands:
     init_us_2    :      0.01s CPU      0.01s WALL (     240 calls)
     cegterg      :      0.08s CPU      0.09s WALL (      96 calls)

     Called by sum_band:

     Called by *egterg:
     h_psi        :      0.06s CPU      0.07s WALL (     310 calls)
     g_psi        :      0.00s CPU      0.00s WALL (     198 calls)
     cdiaghg      :      0.01s CPU      0.01s WALL (     278 calls)

     Called by h_psi:
     h_psi:pot    :      0.06s CPU      0.07s WALL (     310 calls)
     h_psi:calbec :      0.00s CPU      0.00s WALL (     310 calls)
     vloc_psi     :      0.06s CPU      0.06s WALL (     310 calls)
     add_vuspsi   :      0.00s CPU      0.00s WALL (     310 calls)

     General routines
     calbec       :      0.00s CPU      0.00s WALL (     390 calls)
     fft          :      0.00s CPU      0.00s WALL (      23 calls)
     ffts         :      0.00s CPU      0.00s WALL (       6 calls)
     fftw         :      0.05s CPU      0.05s WALL (    2678 calls)

     Parallel routines

     PWSCF        :      0.15s CPU      0.18s WALL


   This run was terminated on:   0:15:42   2Oct2020            

=------------------------------------------------------------------------------=
   JOB DONE.
=------------------------------------------------------------------------------=
