
     Program PWSCF v.6.4.1 starts on  7Oct2020 at  0:38:21 

     This program is part of the open-source Quantum ESPRESSO suite
     for quantum simulation of materials; please cite
         "P. Giannozzi et al., J. Phys.:Condens. Matter 21 395502 (2009);
         "P. Giannozzi et al., J. Phys.:Condens. Matter 29 465901 (2017);
          URL http://www.quantum-espresso.org", 
     in publications or presentations arising from this work. More details at
     http://www.quantum-espresso.org/quote

     Parallel version (MPI), running on     1 processors

     MPI processes distributed on     1 nodes
     Waiting for input...
     Reading input from standard input
Warning: card &IONS ignored
Warning: card / ignored
Warning: card &CELL ignored
Warning: card / ignored

     Current dimensions of program PWSCF are:
     Max number of different atomic species (ntypx) = 10
     Max number of k-points (npk) =  40000
     Max angular momentum in pseudopotentials (lmaxx) =  3

     Subspace diagonalization in iterative solution of the eigenvalue problem:
     a serial algorithm will be used

     Message from routine setup:
     DEPRECATED: symmetry with ibrav=0, use correct ibrav instead

     G-vector sticks info
     --------------------
     sticks:   dense  smooth     PW     G-vecs:    dense   smooth      PW
     Sum         859     859    253                16625    16625    2733



     bravais-lattice index     =            0
     lattice parameter (alat)  =       6.6812  a.u.
     unit-cell volume          =     210.8855 (a.u.)^3
     number of atoms/cell      =            2
     number of atomic types    =            1
     number of electrons       =         8.00
     number of Kohn-Sham states=            4
     kinetic-energy cutoff     =      70.0000  Ry
     charge density cutoff     =     280.0000  Ry
     convergence threshold     =      1.0E-07
     mixing beta               =       0.5000
     number of iterations used =            8  plain     mixing
     Exchange-correlation      = SLA PZ NOGX NOGC ( 1  1  0  0 0 0)

     celldm(1)=   6.681191  celldm(2)=   0.000000  celldm(3)=   0.000000
     celldm(4)=   0.000000  celldm(5)=   0.000000  celldm(6)=   0.000000

     crystal axes: (cart. coord. in units of alat)
               a(1) = (   0.000000   0.707107   0.707107 )  
               a(2) = (   0.707107   0.000000   0.707107 )  
               a(3) = (   0.707107   0.707107   0.000000 )  

     reciprocal axes: (cart. coord. in units 2 pi/alat)
               b(1) = ( -0.707107  0.707107  0.707107 )  
               b(2) = (  0.707107 -0.707107  0.707107 )  
               b(3) = (  0.707107  0.707107 -0.707107 )  


     PseudoPot. # 1 for Ge read from file:
     /home/modeler/qe_pseudo/Ge.pz-bhs.UPF
     MD5 check sum: 4f8fee77de72fb640d24dcbf01bda005
     Pseudo is Norm-conserving, Zval =  4.0
     Generated by new atomic code, or converted to UPF format
     Using radial grid of  291 points,  2 beta functions with: 
                l(1) =   0
                l(2) =   1

     atomic species   valence    mass     pseudopotential
        Ge             4.00    72.63000     Ge( 1.00)

      4 Sym. Ops. (no inversion) found



   Cartesian axes

     site n.     atom                  positions (alat units)
         1           Ge  tau(   1) = (   0.0000000   0.0000000   0.0707107  )
         2           Ge  tau(   2) = (   0.3535534   0.3535534   0.3535534  )

     number of k points=    18
                       cart. coord. in units 2pi/alat
        k(    1) = (   0.0000000   0.0000000   0.0000000), wk =   0.0312500
        k(    2) = (   0.1767767   0.1767767  -0.1767767), wk =   0.1250000
        k(    3) = (  -0.3535534  -0.3535534   0.3535534), wk =   0.0625000
        k(    4) = (   0.3535534   0.0000000   0.0000000), wk =   0.1250000
        k(    5) = (  -0.1767767  -0.5303301   0.5303301), wk =   0.2500000
        k(    6) = (   0.0000000  -0.3535534   0.3535534), wk =   0.2500000
        k(    7) = (  -0.7071068   0.0000000   0.0000000), wk =   0.0625000
        k(    8) = (  -0.7071068   0.3535534   0.0000000), wk =   0.1250000
        k(    9) = (   0.1767767  -0.1767767  -0.1767767), wk =   0.1250000
        k(   10) = (  -0.3535534   0.3535534   0.3535534), wk =   0.0625000
        k(   11) = (   0.0000000   0.0000000   0.3535534), wk =   0.0625000
        k(   12) = (  -0.5303301   0.1767767   0.5303301), wk =   0.2500000
        k(   13) = (   0.5303301   0.5303301  -0.1767767), wk =   0.1250000
        k(   14) = (  -0.5303301   0.5303301   0.1767767), wk =   0.1250000
        k(   15) = (   0.3535534   0.3535534   0.0000000), wk =   0.0625000
        k(   16) = (  -0.3535534   0.3535534   0.0000000), wk =   0.0625000
        k(   17) = (   0.0000000   0.0000000  -0.7071068), wk =   0.0312500
        k(   18) = (   0.7071068  -0.0000000   0.3535534), wk =   0.0625000

     Dense  grid:    16625 G-vectors     FFT dimensions: (  36,  36,  36)

     Estimated max dynamical RAM per process >      13.94 MB

     Initial potential from superposition of free atoms

     starting charge    6.99990, renormalised to    8.00000
     Starting wfcs are    8 randomized atomic wfcs

     total cpu time spent up to now is        0.3 secs

     Self-consistent Calculation

     iteration #  1     ecut=    70.00 Ry     beta= 0.50
     Davidson diagonalization with overlap
     ethr =  1.00E-02,  avg # of iterations =  1.9

     Threshold (ethr) on eigenvalues was too large:
     Diagonalizing with lowered threshold

     Davidson diagonalization with overlap
     ethr =  3.25E-04,  avg # of iterations =  2.6

     total cpu time spent up to now is        1.1 secs

     total energy              =     -15.82358303 Ry
     Harris-Foulkes estimate   =     -15.82780141 Ry
     estimated scf accuracy    <       0.02886874 Ry

     iteration #  2     ecut=    70.00 Ry     beta= 0.50
     Davidson diagonalization with overlap
     ethr =  3.61E-04,  avg # of iterations =  1.0

     total cpu time spent up to now is        1.5 secs

     total energy              =     -15.82274618 Ry
     Harris-Foulkes estimate   =     -15.82385316 Ry
     estimated scf accuracy    <       0.00643311 Ry

     iteration #  3     ecut=    70.00 Ry     beta= 0.50
     Davidson diagonalization with overlap
     ethr =  8.04E-05,  avg # of iterations =  1.0

     total cpu time spent up to now is        1.8 secs

     total energy              =     -15.82293343 Ry
     Harris-Foulkes estimate   =     -15.82295769 Ry
     estimated scf accuracy    <       0.00004752 Ry

     iteration #  4     ecut=    70.00 Ry     beta= 0.50
     Davidson diagonalization with overlap
     ethr =  5.94E-07,  avg # of iterations =  3.9

     total cpu time spent up to now is        2.3 secs

     total energy              =     -15.82351182 Ry
     Harris-Foulkes estimate   =     -15.82350156 Ry
     estimated scf accuracy    <       0.00008270 Ry

     iteration #  5     ecut=    70.00 Ry     beta= 0.50
     Davidson diagonalization with overlap
     ethr =  5.94E-07,  avg # of iterations =  1.0

     total cpu time spent up to now is        2.6 secs

     total energy              =     -15.82345449 Ry
     Harris-Foulkes estimate   =     -15.82351211 Ry
     estimated scf accuracy    <       0.00010848 Ry

     iteration #  6     ecut=    70.00 Ry     beta= 0.50
     Davidson diagonalization with overlap
     ethr =  5.94E-07,  avg # of iterations =  2.2

     total cpu time spent up to now is        3.1 secs

     total energy              =     -15.82347000 Ry
     Harris-Foulkes estimate   =     -15.82347491 Ry
     estimated scf accuracy    <       0.00000848 Ry

     iteration #  7     ecut=    70.00 Ry     beta= 0.50
     Davidson diagonalization with overlap
     ethr =  1.06E-07,  avg # of iterations =  2.5

     total cpu time spent up to now is        3.5 secs

     total energy              =     -15.82346969 Ry
     Harris-Foulkes estimate   =     -15.82347473 Ry
     estimated scf accuracy    <       0.00000894 Ry

     iteration #  8     ecut=    70.00 Ry     beta= 0.50
     Davidson diagonalization with overlap
     ethr =  1.06E-07,  avg # of iterations =  2.1

     total cpu time spent up to now is        4.0 secs

     total energy              =     -15.82347115 Ry
     Harris-Foulkes estimate   =     -15.82347160 Ry
     estimated scf accuracy    <       0.00000088 Ry

     iteration #  9     ecut=    70.00 Ry     beta= 0.50
     Davidson diagonalization with overlap
     ethr =  1.09E-08,  avg # of iterations =  2.4

     total cpu time spent up to now is        4.4 secs

     End of self-consistent calculation

          k = 0.0000 0.0000 0.0000 (  2085 PWs)   bands (ev):

    -5.7936   8.4605  10.2332  11.5153

          k = 0.1768 0.1768-0.1768 (  2085 PWs)   bands (ev):

    -4.8295   3.7981   8.3278   9.5017

          k =-0.3536-0.3536 0.3536 (  2060 PWs)   bands (ev):

    -2.5761  -0.6129   7.5344   8.8462

          k = 0.3536 0.0000 0.0000 (  2085 PWs)   bands (ev):

    -4.5358   4.6978   7.0437   7.4224

          k =-0.1768-0.5303 0.5303 (  2092 PWs)   bands (ev):

    -2.3106   0.4206   5.0328   6.6190

          k = 0.0000-0.3536 0.3536 (  2085 PWs)   bands (ev):

    -3.3733   2.3304   4.1533   8.0013

          k =-0.7071 0.0000 0.0000 (  2100 PWs)   bands (ev):

    -0.7710  -0.7710   5.6709   5.6709

          k =-0.7071 0.3536 0.0000 (  2120 PWs)   bands (ev):

    -1.1291   0.3034   3.6075   4.4287

          k = 0.1768-0.1768-0.1768 (  2085 PWs)   bands (ev):

    -4.8989   4.7166   7.6201   9.4722

          k =-0.3536 0.3536 0.3536 (  2060 PWs)   bands (ev):

    -3.2245   0.7703   7.0521   8.9160

          k = 0.0000 0.0000 0.3536 (  2085 PWs)   bands (ev):

    -4.5452   5.3610   6.2582   7.3554

          k =-0.5303 0.1768 0.5303 (  2092 PWs)   bands (ev):

    -2.7117   1.7719   3.9745   6.7411

          k = 0.5303 0.5303-0.1768 (  2092 PWs)   bands (ev):

    -2.4138   0.8494   4.2235   6.9164

          k =-0.5303 0.5303 0.1768 (  2092 PWs)   bands (ev):

    -2.7287   1.6210   5.0355   5.8265

          k = 0.3536 0.3536 0.0000 (  2085 PWs)   bands (ev):

    -3.1717   1.4155   4.3843   8.5051

          k =-0.3536 0.3536 0.0000 (  2085 PWs)   bands (ev):

    -3.5377   3.3726   4.1689   6.9245

          k = 0.0000 0.0000-0.7071 (  2100 PWs)   bands (ev):

    -1.5211   0.2982   4.9851   5.8615

          k = 0.7071-0.0000 0.3536 (  2120 PWs)   bands (ev):

    -0.5270  -0.5270   4.1504   4.1504

     highest occupied level (ev):    11.5153

!    total energy              =     -15.82347129 Ry
     Harris-Foulkes estimate   =     -15.82347129 Ry
     estimated scf accuracy    <          1.5E-09 Ry

     The total energy is the sum of the following terms:

     one-electron contribution =       6.52748877 Ry
     hartree contribution      =       0.88771706 Ry
     xc contribution           =      -5.06386780 Ry
     ewald contribution        =     -18.17480932 Ry

     convergence has been achieved in   9 iterations

     Forces acting on atoms (cartesian axes, Ry/au):

     atom    1 type  1   force =    -0.00000000    0.00000000   -0.21722653
     atom    2 type  1   force =     0.00000000   -0.00000000    0.21722653

     Total force =     0.307205     Total SCF correction =     0.000003


     Computing stress (Cartesian axis) and pressure

          total   stress  (Ry/bohr**3)                   (kbar)     P=  590.99
   0.00428097   0.00220705  -0.00000000        629.75    324.67     -0.00
   0.00220705   0.00428097   0.00000000        324.67    629.75      0.00
  -0.00000000  -0.00000000   0.00349048         -0.00     -0.00    513.47


     init_run     :      0.31s CPU      0.31s WALL (       1 calls)
     electrons    :      4.01s CPU      4.06s WALL (       1 calls)
     forces       :      0.03s CPU      0.03s WALL (       1 calls)
     stress       :      0.15s CPU      0.16s WALL (       1 calls)

     Called by init_run:
     wfcinit      :      0.26s CPU      0.26s WALL (       1 calls)
     potinit      :      0.01s CPU      0.01s WALL (       1 calls)
     hinit0       :      0.03s CPU      0.03s WALL (       1 calls)

     Called by electrons:
     c_bands      :      3.29s CPU      3.33s WALL (      10 calls)
     sum_band     :      0.64s CPU      0.64s WALL (      10 calls)
     v_of_rho     :      0.04s CPU      0.04s WALL (      10 calls)
     mix_rho      :      0.04s CPU      0.04s WALL (      10 calls)

     Called by c_bands:
     init_us_2    :      0.15s CPU      0.16s WALL (     414 calls)
     cegterg      :      3.16s CPU      3.20s WALL (     180 calls)

     Called by sum_band:

     Called by *egterg:
     h_psi        :      3.03s CPU      3.07s WALL (     569 calls)
     g_psi        :      0.02s CPU      0.02s WALL (     371 calls)
     cdiaghg      :      0.04s CPU      0.04s WALL (     533 calls)

     Called by h_psi:
     h_psi:pot    :      3.02s CPU      3.05s WALL (     569 calls)
     h_psi:calbec :      0.09s CPU      0.09s WALL (     569 calls)
     vloc_psi     :      2.85s CPU      2.88s WALL (     569 calls)
     add_vuspsi   :      0.08s CPU      0.08s WALL (     569 calls)

     General routines
     calbec       :      0.10s CPU      0.10s WALL (     659 calls)
     fft          :      0.05s CPU      0.05s WALL (      35 calls)
     ffts         :      0.01s CPU      0.01s WALL (      10 calls)
     fftw         :      2.92s CPU      2.96s WALL (    4904 calls)

     Parallel routines

     PWSCF        :      4.52s CPU      4.59s WALL


   This run was terminated on:   0:38:25   7Oct2020            

=------------------------------------------------------------------------------=
   JOB DONE.
=------------------------------------------------------------------------------=
