
     Program PWSCF v.6.4.1 starts on  7Oct2020 at  0:38: 9 

     This program is part of the open-source Quantum ESPRESSO suite
     for quantum simulation of materials; please cite
         "P. Giannozzi et al., J. Phys.:Condens. Matter 21 395502 (2009);
         "P. Giannozzi et al., J. Phys.:Condens. Matter 29 465901 (2017);
          URL http://www.quantum-espresso.org", 
     in publications or presentations arising from this work. More details at
     http://www.quantum-espresso.org/quote

     Parallel version (MPI), running on     1 processors

     MPI processes distributed on     1 nodes
     Waiting for input...
     Reading input from standard input
Warning: card &IONS ignored
Warning: card / ignored
Warning: card &CELL ignored
Warning: card / ignored

     Current dimensions of program PWSCF are:
     Max number of different atomic species (ntypx) = 10
     Max number of k-points (npk) =  40000
     Max angular momentum in pseudopotentials (lmaxx) =  3

     Subspace diagonalization in iterative solution of the eigenvalue problem:
     a serial algorithm will be used

     Message from routine setup:
     DEPRECATED: symmetry with ibrav=0, use correct ibrav instead

     G-vector sticks info
     --------------------
     sticks:   dense  smooth     PW     G-vecs:    dense   smooth      PW
     Sum         673     673    199                11575    11575    1917



     bravais-lattice index     =            0
     lattice parameter (alat)  =       6.6812  a.u.
     unit-cell volume          =     210.8855 (a.u.)^3
     number of atoms/cell      =            2
     number of atomic types    =            1
     number of electrons       =         8.00
     number of Kohn-Sham states=            4
     kinetic-energy cutoff     =      55.0000  Ry
     charge density cutoff     =     220.0000  Ry
     convergence threshold     =      1.0E-07
     mixing beta               =       0.5000
     number of iterations used =            8  plain     mixing
     Exchange-correlation      = SLA PZ NOGX NOGC ( 1  1  0  0 0 0)

     celldm(1)=   6.681191  celldm(2)=   0.000000  celldm(3)=   0.000000
     celldm(4)=   0.000000  celldm(5)=   0.000000  celldm(6)=   0.000000

     crystal axes: (cart. coord. in units of alat)
               a(1) = (   0.000000   0.707107   0.707107 )  
               a(2) = (   0.707107   0.000000   0.707107 )  
               a(3) = (   0.707107   0.707107   0.000000 )  

     reciprocal axes: (cart. coord. in units 2 pi/alat)
               b(1) = ( -0.707107  0.707107  0.707107 )  
               b(2) = (  0.707107 -0.707107  0.707107 )  
               b(3) = (  0.707107  0.707107 -0.707107 )  


     PseudoPot. # 1 for Ge read from file:
     /home/modeler/qe_pseudo/Ge.pz-bhs.UPF
     MD5 check sum: 4f8fee77de72fb640d24dcbf01bda005
     Pseudo is Norm-conserving, Zval =  4.0
     Generated by new atomic code, or converted to UPF format
     Using radial grid of  291 points,  2 beta functions with: 
                l(1) =   0
                l(2) =   1

     atomic species   valence    mass     pseudopotential
        Ge             4.00    72.63000     Ge( 1.00)

      4 Sym. Ops. (no inversion) found



   Cartesian axes

     site n.     atom                  positions (alat units)
         1           Ge  tau(   1) = (   0.0000000   0.0000000   0.0707107  )
         2           Ge  tau(   2) = (   0.3535534   0.3535534   0.3535534  )

     number of k points=    18
                       cart. coord. in units 2pi/alat
        k(    1) = (   0.0000000   0.0000000   0.0000000), wk =   0.0312500
        k(    2) = (   0.1767767   0.1767767  -0.1767767), wk =   0.1250000
        k(    3) = (  -0.3535534  -0.3535534   0.3535534), wk =   0.0625000
        k(    4) = (   0.3535534   0.0000000   0.0000000), wk =   0.1250000
        k(    5) = (  -0.1767767  -0.5303301   0.5303301), wk =   0.2500000
        k(    6) = (   0.0000000  -0.3535534   0.3535534), wk =   0.2500000
        k(    7) = (  -0.7071068   0.0000000   0.0000000), wk =   0.0625000
        k(    8) = (  -0.7071068   0.3535534   0.0000000), wk =   0.1250000
        k(    9) = (   0.1767767  -0.1767767  -0.1767767), wk =   0.1250000
        k(   10) = (  -0.3535534   0.3535534   0.3535534), wk =   0.0625000
        k(   11) = (   0.0000000   0.0000000   0.3535534), wk =   0.0625000
        k(   12) = (  -0.5303301   0.1767767   0.5303301), wk =   0.2500000
        k(   13) = (   0.5303301   0.5303301  -0.1767767), wk =   0.1250000
        k(   14) = (  -0.5303301   0.5303301   0.1767767), wk =   0.1250000
        k(   15) = (   0.3535534   0.3535534   0.0000000), wk =   0.0625000
        k(   16) = (  -0.3535534   0.3535534   0.0000000), wk =   0.0625000
        k(   17) = (   0.0000000   0.0000000  -0.7071068), wk =   0.0312500
        k(   18) = (   0.7071068  -0.0000000   0.3535534), wk =   0.0625000

     Dense  grid:    11575 G-vectors     FFT dimensions: (  32,  32,  32)

     Estimated max dynamical RAM per process >       9.76 MB

     Initial potential from superposition of free atoms

     starting charge    6.99990, renormalised to    8.00000
     Starting wfcs are    8 randomized atomic wfcs

     total cpu time spent up to now is        0.2 secs

     Self-consistent Calculation

     iteration #  1     ecut=    55.00 Ry     beta= 0.50
     Davidson diagonalization with overlap
     ethr =  1.00E-02,  avg # of iterations =  1.7

     Threshold (ethr) on eigenvalues was too large:
     Diagonalizing with lowered threshold

     Davidson diagonalization with overlap
     ethr =  3.16E-04,  avg # of iterations =  2.9

     total cpu time spent up to now is        0.5 secs

     total energy              =     -15.82409044 Ry
     Harris-Foulkes estimate   =     -15.82878748 Ry
     estimated scf accuracy    <       0.03025201 Ry

     iteration #  2     ecut=    55.00 Ry     beta= 0.50
     Davidson diagonalization with overlap
     ethr =  3.78E-04,  avg # of iterations =  1.0

     total cpu time spent up to now is        0.6 secs

     total energy              =     -15.82322829 Ry
     Harris-Foulkes estimate   =     -15.82439340 Ry
     estimated scf accuracy    <       0.00653789 Ry

     iteration #  3     ecut=    55.00 Ry     beta= 0.50
     Davidson diagonalization with overlap
     ethr =  8.17E-05,  avg # of iterations =  1.0

     total cpu time spent up to now is        0.8 secs

     total energy              =     -15.82341185 Ry
     Harris-Foulkes estimate   =     -15.82343388 Ry
     estimated scf accuracy    <       0.00004855 Ry

     iteration #  4     ecut=    55.00 Ry     beta= 0.50
     Davidson diagonalization with overlap
     ethr =  6.07E-07,  avg # of iterations =  3.2

     total cpu time spent up to now is        1.0 secs

     total energy              =     -15.82346227 Ry
     Harris-Foulkes estimate   =     -15.82346366 Ry
     estimated scf accuracy    <       0.00000298 Ry

     iteration #  5     ecut=    55.00 Ry     beta= 0.50
     Davidson diagonalization with overlap
     ethr =  3.73E-08,  avg # of iterations =  2.4

     total cpu time spent up to now is        1.2 secs

     total energy              =     -15.82346267 Ry
     Harris-Foulkes estimate   =     -15.82346270 Ry
     estimated scf accuracy    <       0.00000016 Ry

     iteration #  6     ecut=    55.00 Ry     beta= 0.50
     Davidson diagonalization with overlap
     ethr =  2.05E-09,  avg # of iterations =  2.4

     total cpu time spent up to now is        1.4 secs

     End of self-consistent calculation

          k = 0.0000 0.0000 0.0000 (  1459 PWs)   bands (ev):

    -5.7933   8.4609  10.2336  11.5157

          k = 0.1768 0.1768-0.1768 (  1447 PWs)   bands (ev):

    -4.8292   3.7984   8.3282   9.5021

          k =-0.3536-0.3536 0.3536 (  1458 PWs)   bands (ev):

    -2.5757  -0.6128   7.5347   8.8465

          k = 0.3536 0.0000 0.0000 (  1475 PWs)   bands (ev):

    -4.5355   4.6982   7.0440   7.4227

          k =-0.1768-0.5303 0.5303 (  1461 PWs)   bands (ev):

    -2.3103   0.4209   5.0331   6.6193

          k = 0.0000-0.3536 0.3536 (  1456 PWs)   bands (ev):

    -3.3730   2.3307   4.1535   8.0016

          k =-0.7071 0.0000 0.0000 (  1428 PWs)   bands (ev):

    -0.7707  -0.7707   5.6711   5.6712

          k =-0.7071 0.3536 0.0000 (  1448 PWs)   bands (ev):

    -1.1288   0.3038   3.6076   4.4289

          k = 0.1768-0.1768-0.1768 (  1447 PWs)   bands (ev):

    -4.8986   4.7168   7.6205   9.4726

          k =-0.3536 0.3536 0.3536 (  1458 PWs)   bands (ev):

    -3.2242   0.7705   7.0524   8.9164

          k = 0.0000 0.0000 0.3536 (  1475 PWs)   bands (ev):

    -4.5449   5.3615   6.2585   7.3556

          k =-0.5303 0.1768 0.5303 (  1461 PWs)   bands (ev):

    -2.7114   1.7723   3.9747   6.7414

          k = 0.5303 0.5303-0.1768 (  1461 PWs)   bands (ev):

    -2.4135   0.8497   4.2237   6.9166

          k =-0.5303 0.5303 0.1768 (  1461 PWs)   bands (ev):

    -2.7284   1.6213   5.0357   5.8268

          k = 0.3536 0.3536 0.0000 (  1456 PWs)   bands (ev):

    -3.1714   1.4157   4.3845   8.5054

          k =-0.3536 0.3536 0.0000 (  1456 PWs)   bands (ev):

    -3.5374   3.3730   4.1690   6.9249

          k = 0.0000 0.0000-0.7071 (  1428 PWs)   bands (ev):

    -1.5208   0.2986   4.9853   5.8618

          k = 0.7071-0.0000 0.3536 (  1448 PWs)   bands (ev):

    -0.5267  -0.5266   4.1505   4.1506

     highest occupied level (ev):    11.5157

!    total energy              =     -15.82346270 Ry
     Harris-Foulkes estimate   =     -15.82346272 Ry
     estimated scf accuracy    <       0.00000004 Ry

     The total energy is the sum of the following terms:

     one-electron contribution =       6.52754595 Ry
     hartree contribution      =       0.88763865 Ry
     xc contribution           =      -5.06383796 Ry
     ewald contribution        =     -18.17480934 Ry

     convergence has been achieved in   6 iterations

     Forces acting on atoms (cartesian axes, Ry/au):

     atom    1 type  1   force =     0.00000000    0.00000000   -0.21722911
     atom    2 type  1   force =     0.00000000    0.00000000    0.21722911

     Total force =     0.307208     Total SCF correction =     0.000033


     Computing stress (Cartesian axis) and pressure

          total   stress  (Ry/bohr**3)                   (kbar)     P=  590.86
   0.00428007   0.00220711   0.00000000        629.62    324.68      0.00
   0.00220711   0.00428007   0.00000000        324.68    629.62      0.00
  -0.00000000   0.00000000   0.00348969         -0.00      0.00    513.35


     init_run     :      0.13s CPU      0.15s WALL (       1 calls)
     electrons    :      1.22s CPU      1.26s WALL (       1 calls)
     forces       :      0.01s CPU      0.02s WALL (       1 calls)
     stress       :      0.12s CPU      0.12s WALL (       1 calls)

     Called by init_run:
     wfcinit      :      0.11s CPU      0.11s WALL (       1 calls)
     potinit      :      0.00s CPU      0.01s WALL (       1 calls)
     hinit0       :      0.02s CPU      0.02s WALL (       1 calls)

     Called by electrons:
     c_bands      :      1.00s CPU      1.03s WALL (       7 calls)
     sum_band     :      0.19s CPU      0.19s WALL (       7 calls)
     v_of_rho     :      0.01s CPU      0.02s WALL (       7 calls)
     mix_rho      :      0.01s CPU      0.01s WALL (       7 calls)

     Called by c_bands:
     init_us_2    :      0.09s CPU      0.09s WALL (     306 calls)
     cegterg      :      0.93s CPU      0.96s WALL (     126 calls)

     Called by sum_band:

     Called by *egterg:
     h_psi        :      0.82s CPU      0.84s WALL (     408 calls)
     g_psi        :      0.01s CPU      0.01s WALL (     264 calls)
     cdiaghg      :      0.03s CPU      0.03s WALL (     372 calls)

     Called by h_psi:
     h_psi:pot    :      0.81s CPU      0.83s WALL (     408 calls)
     h_psi:calbec :      0.05s CPU      0.05s WALL (     408 calls)
     vloc_psi     :      0.72s CPU      0.74s WALL (     408 calls)
     add_vuspsi   :      0.04s CPU      0.04s WALL (     408 calls)

     General routines
     calbec       :      0.05s CPU      0.06s WALL (     498 calls)
     fft          :      0.01s CPU      0.01s WALL (      26 calls)
     ffts         :      0.00s CPU      0.00s WALL (       7 calls)
     fftw         :      0.62s CPU      0.63s WALL (    3476 calls)

     Parallel routines

     PWSCF        :      1.52s CPU      1.58s WALL


   This run was terminated on:   0:38:11   7Oct2020            

=------------------------------------------------------------------------------=
   JOB DONE.
=------------------------------------------------------------------------------=
