
     Program PWSCF v.6.4.1 starts on  7Oct2020 at  6:54:45 

     This program is part of the open-source Quantum ESPRESSO suite
     for quantum simulation of materials; please cite
         "P. Giannozzi et al., J. Phys.:Condens. Matter 21 395502 (2009);
         "P. Giannozzi et al., J. Phys.:Condens. Matter 29 465901 (2017);
          URL http://www.quantum-espresso.org", 
     in publications or presentations arising from this work. More details at
     http://www.quantum-espresso.org/quote

     Parallel version (MPI), running on     1 processors

     MPI processes distributed on     1 nodes
     Waiting for input...
     Reading input from standard input

     Current dimensions of program PWSCF are:
     Max number of different atomic species (ntypx) = 10
     Max number of k-points (npk) =  40000
     Max angular momentum in pseudopotentials (lmaxx) =  3

     Subspace diagonalization in iterative solution of the eigenvalue problem:
     a serial algorithm will be used

     Message from routine setup:
     DEPRECATED: symmetry with ibrav=0, use correct ibrav instead

     G-vector sticks info
     --------------------
     sticks:   dense  smooth     PW     G-vecs:    dense   smooth      PW
     Sum         367     367    121                 4645     4645     869



     bravais-lattice index     =            0
     lattice parameter (alat)  =       6.6812  a.u.
     unit-cell volume          =     210.8855 (a.u.)^3
     number of atoms/cell      =            2
     number of atomic types    =            1
     number of electrons       =         8.00
     number of Kohn-Sham states=            4
     kinetic-energy cutoff     =      30.0000  Ry
     charge density cutoff     =     120.0000  Ry
     convergence threshold     =      1.0E-07
     mixing beta               =       0.5000
     number of iterations used =            8  plain     mixing
     Exchange-correlation      = SLA PZ NOGX NOGC ( 1  1  0  0 0 0)
     nstep                     =           50


     celldm(1)=   6.681191  celldm(2)=   0.000000  celldm(3)=   0.000000
     celldm(4)=   0.000000  celldm(5)=   0.000000  celldm(6)=   0.000000

     crystal axes: (cart. coord. in units of alat)
               a(1) = (   0.000000   0.707107   0.707107 )  
               a(2) = (   0.707107   0.000000   0.707107 )  
               a(3) = (   0.707107   0.707107   0.000000 )  

     reciprocal axes: (cart. coord. in units 2 pi/alat)
               b(1) = ( -0.707107  0.707107  0.707107 )  
               b(2) = (  0.707107 -0.707107  0.707107 )  
               b(3) = (  0.707107  0.707107 -0.707107 )  


     PseudoPot. # 1 for Ge read from file:
     /home/modeler/qe_pseudo/Ge.pz-bhs.UPF
     MD5 check sum: 4f8fee77de72fb640d24dcbf01bda005
     Pseudo is Norm-conserving, Zval =  4.0
     Generated by new atomic code, or converted to UPF format
     Using radial grid of  291 points,  2 beta functions with: 
                l(1) =   0
                l(2) =   1

     atomic species   valence    mass     pseudopotential
        Ge             4.00    72.63000     Ge( 1.00)

     48 Sym. Ops., with inversion, found (24 have fractional translation)



   Cartesian axes

     site n.     atom                  positions (alat units)
         1           Ge  tau(   1) = (   0.0000000   0.0000000   0.0000000  )
         2           Ge  tau(   2) = (   0.3535534   0.3535534   0.3535534  )

     number of k points=     8
                       cart. coord. in units 2pi/alat
        k(    1) = (   0.0000000   0.0000000   0.0000000), wk =   0.0312500
        k(    2) = (   0.1767767   0.1767767  -0.1767767), wk =   0.2500000
        k(    3) = (  -0.3535534  -0.3535534   0.3535534), wk =   0.1250000
        k(    4) = (   0.3535534   0.0000000   0.0000000), wk =   0.1875000
        k(    5) = (  -0.1767767  -0.5303301   0.5303301), wk =   0.7500000
        k(    6) = (   0.0000000  -0.3535534   0.3535534), wk =   0.3750000
        k(    7) = (  -0.7071068   0.0000000   0.0000000), wk =   0.0937500
        k(    8) = (  -0.7071068   0.3535534   0.0000000), wk =   0.1875000

     Dense  grid:     4645 G-vectors     FFT dimensions: (  24,  24,  24)

     Estimated max dynamical RAM per process >       3.73 MB

     Initial potential from superposition of free atoms

     starting charge    6.99990, renormalised to    8.00000
     Starting wfcs are    8 randomized atomic wfcs

     total cpu time spent up to now is        0.7 secs

     Self-consistent Calculation

     iteration #  1     ecut=    30.00 Ry     beta= 0.50
     Davidson diagonalization with overlap
     ethr =  1.00E-02,  avg # of iterations =  1.6

     Threshold (ethr) on eigenvalues was too large:
     Diagonalizing with lowered threshold

     Davidson diagonalization with overlap
     ethr =  2.90E-04,  avg # of iterations =  2.8

     total cpu time spent up to now is        0.8 secs

     total energy              =     -15.87655908 Ry
     Harris-Foulkes estimate   =     -15.88106437 Ry
     estimated scf accuracy    <       0.02987556 Ry

     iteration #  2     ecut=    30.00 Ry     beta= 0.50
     Davidson diagonalization with overlap
     ethr =  3.73E-04,  avg # of iterations =  1.0

     total cpu time spent up to now is        0.8 secs

     total energy              =     -15.87573714 Ry
     Harris-Foulkes estimate   =     -15.87684254 Ry
     estimated scf accuracy    <       0.00642906 Ry

     iteration #  3     ecut=    30.00 Ry     beta= 0.50
     Davidson diagonalization with overlap
     ethr =  8.04E-05,  avg # of iterations =  1.1

     total cpu time spent up to now is        0.9 secs

     total energy              =     -15.87590192 Ry
     Harris-Foulkes estimate   =     -15.87591944 Ry
     estimated scf accuracy    <       0.00004212 Ry

     iteration #  4     ecut=    30.00 Ry     beta= 0.50
     Davidson diagonalization with overlap
     ethr =  5.27E-07,  avg # of iterations =  3.0

     total cpu time spent up to now is        0.9 secs

     total energy              =     -15.87592834 Ry
     Harris-Foulkes estimate   =     -15.87592960 Ry
     estimated scf accuracy    <       0.00000285 Ry

     iteration #  5     ecut=    30.00 Ry     beta= 0.50
     Davidson diagonalization with overlap
     ethr =  3.56E-08,  avg # of iterations =  1.8

     total cpu time spent up to now is        1.0 secs

     End of self-consistent calculation

          k = 0.0000 0.0000 0.0000 (   561 PWs)   bands (ev):

    -5.7135   9.9761   9.9761   9.9761

          k = 0.1768 0.1768-0.1768 (   580 PWs)   bands (ev):

    -4.7741   4.3433   8.7034   8.7034

          k =-0.3536-0.3536 0.3536 (   580 PWs)   bands (ev):

    -2.8130   0.1260   8.0320   8.0320

          k = 0.3536 0.0000 0.0000 (   576 PWs)   bands (ev):

    -4.4444   5.2328   6.9469   6.9469

          k =-0.1768-0.5303 0.5303 (   584 PWs)   bands (ev):

    -2.3965   1.1536   4.6041   6.4832

          k = 0.0000-0.3536 0.3536 (   590 PWs)   bands (ev):

    -3.2515   2.4093   4.2226   7.8208

          k =-0.7071 0.0000 0.0000 (   588 PWs)   bands (ev):

    -0.6159  -0.6159   5.5256   5.5256

          k =-0.7071 0.3536 0.0000 (   604 PWs)   bands (ev):

    -0.3476  -0.3476   4.0250   4.0250

     highest occupied level (ev):     9.9761

!    total energy              =     -15.87592858 Ry
     Harris-Foulkes estimate   =     -15.87592857 Ry
     estimated scf accuracy    <       0.00000007 Ry

     The total energy is the sum of the following terms:

     one-electron contribution =       6.54517184 Ry
     hartree contribution      =       0.88692840 Ry
     xc contribution           =      -5.06437597 Ry
     ewald contribution        =     -18.24365286 Ry

     convergence has been achieved in   5 iterations

     Forces acting on atoms (cartesian axes, Ry/au):

     atom    1 type  1   force =     0.00000000    0.00000000    0.00000000
     atom    2 type  1   force =     0.00000000    0.00000000   -0.00000000

     Total force =     0.000000     Total SCF correction =     0.000000


     Computing stress (Cartesian axis) and pressure

          total   stress  (Ry/bohr**3)                   (kbar)     P=  544.60
   0.00370208  -0.00000000  -0.00000000        544.60     -0.00     -0.00
  -0.00000000   0.00370208  -0.00000000         -0.00    544.60     -0.00
  -0.00000000  -0.00000000   0.00370208         -0.00     -0.00    544.60


     BFGS Geometry Optimization

     number of scf cycles    =   1
     number of bfgs steps    =   0

     enthalpy new            =     -15.8759285808 Ry

     new trust radius        =       0.2688063758 bohr
     new conv_thr            =       0.0000001000 Ry

     new unit-cell volume =    275.02558 a.u.^3 (    40.75459 Ang^3 )
     density =      5.91859 g/cm^3

CELL_PARAMETERS (angstrom)
  -0.000000000   2.731380241   2.731380241
   2.731380241  -0.000000000   2.731380241
   2.731380241   2.731380241  -0.000000000

ATOMIC_POSITIONS (angstrom)
Ge      -0.000000000   0.000000000   0.000000000
Ge       1.365690120   1.365690120   1.365690120


     NEW-OLD atomic charge density approx. for the potential
     extrapolated charge    9.63248, renormalised to    8.00000

     total cpu time spent up to now is        1.1 secs

     Self-consistent Calculation

     iteration #  1     ecut=    30.00 Ry     beta= 0.50
     Davidson diagonalization with overlap
     ethr =  1.00E-06,  avg # of iterations =  6.2

     total cpu time spent up to now is        1.2 secs

     total energy              =     -15.96786992 Ry
     Harris-Foulkes estimate   =     -16.82039774 Ry
     estimated scf accuracy    <       0.00526721 Ry

     iteration #  2     ecut=    30.00 Ry     beta= 0.50
     Davidson diagonalization with overlap
     ethr =  6.58E-05,  avg # of iterations =  3.5

     total cpu time spent up to now is        1.3 secs

     total energy              =     -15.99094943 Ry
     Harris-Foulkes estimate   =     -15.99260931 Ry
     estimated scf accuracy    <       0.00724394 Ry

     iteration #  3     ecut=    30.00 Ry     beta= 0.50
     Davidson diagonalization with overlap
     ethr =  6.58E-05,  avg # of iterations =  1.0

     total cpu time spent up to now is        1.3 secs

     total energy              =     -15.98902866 Ry
     Harris-Foulkes estimate   =     -15.99102109 Ry
     estimated scf accuracy    <       0.00361955 Ry

     iteration #  4     ecut=    30.00 Ry     beta= 0.50
     Davidson diagonalization with overlap
     ethr =  4.52E-05,  avg # of iterations =  2.0

     total cpu time spent up to now is        1.3 secs

     total energy              =     -15.98952749 Ry
     Harris-Foulkes estimate   =     -15.98957884 Ry
     estimated scf accuracy    <       0.00010709 Ry

     iteration #  5     ecut=    30.00 Ry     beta= 0.50
     Davidson diagonalization with overlap
     ethr =  1.34E-06,  avg # of iterations =  2.0

     total cpu time spent up to now is        1.4 secs

     total energy              =     -15.98953947 Ry
     Harris-Foulkes estimate   =     -15.98954165 Ry
     estimated scf accuracy    <       0.00000445 Ry

     iteration #  6     ecut=    30.00 Ry     beta= 0.50
     Davidson diagonalization with overlap
     ethr =  5.57E-08,  avg # of iterations =  2.6

     total cpu time spent up to now is        1.4 secs

     total energy              =     -15.98954022 Ry
     Harris-Foulkes estimate   =     -15.98954028 Ry
     estimated scf accuracy    <       0.00000011 Ry

     iteration #  7     ecut=    30.00 Ry     beta= 0.50
     Davidson diagonalization with overlap
     ethr =  1.38E-09,  avg # of iterations =  3.1

     total cpu time spent up to now is        1.5 secs

     End of self-consistent calculation

          k = 0.0000 0.0000 0.0000 (   561 PWs)   bands (ev):

    -6.7748   6.5537   6.5537   6.5537

          k = 0.1618 0.1618-0.1618 (   580 PWs)   bands (ev):

    -6.0154   1.6951   5.6018   5.6018

          k =-0.3236-0.3236 0.3236 (   580 PWs)   bands (ev):

    -4.5758  -1.5305   5.0568   5.0568

          k = 0.3236 0.0000 0.0000 (   576 PWs)   bands (ev):

    -5.7422   1.8914   4.3123   4.3123

          k =-0.1618-0.4854 0.4854 (   584 PWs)   bands (ev):

    -4.1670  -1.1316   2.4380   3.9327

          k = 0.0000-0.3236 0.3236 (   590 PWs)   bands (ev):

    -4.8209  -0.1838   2.2472   4.9270

          k =-0.6472 0.0000 0.0000 (   588 PWs)   bands (ev):

    -2.7084  -2.7084   3.1998   3.1998

          k =-0.6472 0.3236 0.0000 (   604 PWs)   bands (ev):

    -2.5791  -2.5791   2.1823   2.1823

     highest occupied level (ev):     6.5537

!    total energy              =     -15.98954027 Ry
     Harris-Foulkes estimate   =     -15.98954029 Ry
     estimated scf accuracy    <       0.00000004 Ry

     The total energy is the sum of the following terms:

     one-electron contribution =       4.36198625 Ry
     hartree contribution      =       1.11367016 Ry
     xc contribution           =      -4.76699618 Ry
     ewald contribution        =     -16.69820050 Ry

     convergence has been achieved in   7 iterations

     Forces acting on atoms (cartesian axes, Ry/au):

     atom    1 type  1   force =     0.00000000    0.00000000    0.00000000
     atom    2 type  1   force =     0.00000000   -0.00000000    0.00000000

     Total force =     0.000000     Total SCF correction =     0.000000


     Computing stress (Cartesian axis) and pressure

          total   stress  (Ry/bohr**3)                   (kbar)     P=   71.14
   0.00048363   0.00000000  -0.00000000         71.14      0.00     -0.00
   0.00000000   0.00048363  -0.00000000          0.00     71.14     -0.00
   0.00000000  -0.00000000   0.00048363          0.00     -0.00     71.14


     number of scf cycles    =   2
     number of bfgs steps    =   1

     enthalpy old            =     -15.8759285808 Ry
     enthalpy new            =     -15.9895402723 Ry

     CASE: enthalpy_new < enthalpy_old

     new trust radius        =       0.0519086544 bohr
     new conv_thr            =       0.0000000010 Ry

     new unit-cell volume =    288.14144 a.u.^3 (    42.69816 Ang^3 )
     density =      5.64919 g/cm^3

CELL_PARAMETERS (angstrom)
  -0.000000000   2.774127217   2.774127217
   2.774127217  -0.000000000   2.774127217
   2.774127217   2.774127217  -0.000000000

ATOMIC_POSITIONS (angstrom)
Ge      -0.000000000   0.000000000   0.000000000
Ge       1.387063609   1.387063609   1.387063609


     NEW-OLD atomic charge density approx. for the potential
     extrapolated charge    8.31863, renormalised to    8.00000

     total cpu time spent up to now is        1.6 secs

     Self-consistent Calculation

     iteration #  1     ecut=    30.00 Ry     beta= 0.50
     Davidson diagonalization with overlap
     ethr =  1.00E-06,  avg # of iterations =  4.5

     total cpu time spent up to now is        1.7 secs

     total energy              =     -15.99283488 Ry
     Harris-Foulkes estimate   =     -16.14718397 Ry
     estimated scf accuracy    <       0.00051115 Ry

     iteration #  2     ecut=    30.00 Ry     beta= 0.50
     Davidson diagonalization with overlap
     ethr =  6.39E-06,  avg # of iterations =  3.2

     total cpu time spent up to now is        1.7 secs

     total energy              =     -15.99385433 Ry
     Harris-Foulkes estimate   =     -15.99391095 Ry
     estimated scf accuracy    <       0.00020452 Ry

     iteration #  3     ecut=    30.00 Ry     beta= 0.50
     Davidson diagonalization with overlap
     ethr =  2.56E-06,  avg # of iterations =  1.0

     total cpu time spent up to now is        1.8 secs

     total energy              =     -15.99381897 Ry
     Harris-Foulkes estimate   =     -15.99385806 Ry
     estimated scf accuracy    <       0.00007572 Ry

     iteration #  4     ecut=    30.00 Ry     beta= 0.50
     Davidson diagonalization with overlap
     ethr =  9.46E-07,  avg # of iterations =  2.0

     total cpu time spent up to now is        1.8 secs

     total energy              =     -15.99382969 Ry
     Harris-Foulkes estimate   =     -15.99383138 Ry
     estimated scf accuracy    <       0.00000392 Ry

     iteration #  5     ecut=    30.00 Ry     beta= 0.50
     Davidson diagonalization with overlap
     ethr =  4.90E-08,  avg # of iterations =  1.4

     total cpu time spent up to now is        1.9 secs

     total energy              =     -15.99382974 Ry
     Harris-Foulkes estimate   =     -15.99382997 Ry
     estimated scf accuracy    <       0.00000042 Ry

     iteration #  6     ecut=    30.00 Ry     beta= 0.50
     Davidson diagonalization with overlap
     ethr =  5.30E-09,  avg # of iterations =  2.2

     total cpu time spent up to now is        1.9 secs

     total energy              =     -15.99382984 Ry
     Harris-Foulkes estimate   =     -15.99382984 Ry
     estimated scf accuracy    <          5.8E-09 Ry

     iteration #  7     ecut=    30.00 Ry     beta= 0.50
     Davidson diagonalization with overlap
     ethr =  7.23E-11,  avg # of iterations =  2.6

     total cpu time spent up to now is        1.9 secs

     End of self-consistent calculation

          k = 0.0000 0.0000 0.0000 (   561 PWs)   bands (ev):

    -6.9333   6.0428   6.0428   6.0428

          k = 0.1593 0.1593-0.1593 (   580 PWs)   bands (ev):

    -6.2037   1.2662   5.1385   5.1385

          k =-0.3186-0.3186 0.3186 (   580 PWs)   bands (ev):

    -4.8413  -1.8031   4.6142   4.6142

          k = 0.3186 0.0000 0.0000 (   576 PWs)   bands (ev):

    -5.9400   1.3688   3.9176   3.9176

          k =-0.1593-0.4779 0.4779 (   584 PWs)   bands (ev):

    -4.4383  -1.4968   2.1214   3.5515

          k =-0.0000-0.3186 0.3186 (   590 PWs)   bands (ev):

    -5.0615  -0.5927   1.9534   4.4950

          k =-0.6372 0.0000 0.0000 (   588 PWs)   bands (ev):

    -3.0329  -3.0329   2.8525   2.8525

          k =-0.6372 0.3186 0.0000 (   604 PWs)   bands (ev):

    -2.9201  -2.9201   1.9032   1.9032

     highest occupied level (ev):     6.0428

!    total energy              =     -15.99382984 Ry
     Harris-Foulkes estimate   =     -15.99382984 Ry
     estimated scf accuracy    <          8.7E-10 Ry

     The total energy is the sum of the following terms:

     one-electron contribution =       4.00997928 Ry
     hartree contribution      =       1.15608626 Ry
     xc contribution           =      -4.71899948 Ry
     ewald contribution        =     -16.44089590 Ry

     convergence has been achieved in   7 iterations

     Forces acting on atoms (cartesian axes, Ry/au):

     atom    1 type  1   force =    -0.00000000    0.00000000    0.00000000
     atom    2 type  1   force =     0.00000000   -0.00000000   -0.00000000

     Total force =     0.000000     Total SCF correction =     0.000000


     Computing stress (Cartesian axis) and pressure

          total   stress  (Ry/bohr**3)                   (kbar)     P=   26.95
   0.00018323  -0.00000000   0.00000000         26.95     -0.00      0.00
  -0.00000000   0.00018323   0.00000000         -0.00     26.95      0.00
   0.00000000   0.00000000   0.00018323          0.00      0.00     26.95


     number of scf cycles    =   3
     number of bfgs steps    =   2

     enthalpy old            =     -15.9895402723 Ry
     enthalpy new            =     -15.9938298368 Ry

     CASE: enthalpy_new < enthalpy_old

     new trust radius        =       0.0335610256 bohr
     new conv_thr            =       0.0000000010 Ry

     new unit-cell volume =    296.77153 a.u.^3 (    43.97700 Ang^3 )
     density =      5.48491 g/cm^3

CELL_PARAMETERS (angstrom)
  -0.000000000   2.801551087   2.801551087
   2.801551087  -0.000000000   2.801551087
   2.801551087   2.801551087  -0.000000000

ATOMIC_POSITIONS (angstrom)
Ge      -0.000000000   0.000000000   0.000000000
Ge       1.400775544   1.400775544   1.400775544


     NEW-OLD atomic charge density approx. for the potential
     extrapolated charge    8.20356, renormalised to    8.00000

     total cpu time spent up to now is        2.1 secs

     Self-consistent Calculation

     iteration #  1     ecut=    30.00 Ry     beta= 0.50
     Davidson diagonalization with overlap
     ethr =  1.00E-06,  avg # of iterations =  4.1

     total cpu time spent up to now is        2.1 secs

     total energy              =     -15.99427619 Ry
     Harris-Foulkes estimate   =     -16.09017089 Ry
     estimated scf accuracy    <       0.00022922 Ry

     iteration #  2     ecut=    30.00 Ry     beta= 0.50
     Davidson diagonalization with overlap
     ethr =  2.87E-06,  avg # of iterations =  3.2

     total cpu time spent up to now is        2.2 secs

     total energy              =     -15.99470649 Ry
     Harris-Foulkes estimate   =     -15.99472943 Ry
     estimated scf accuracy    <       0.00008185 Ry

     iteration #  3     ecut=    30.00 Ry     beta= 0.50
     Davidson diagonalization with overlap
     ethr =  1.02E-06,  avg # of iterations =  1.0

     total cpu time spent up to now is        2.2 secs

     total energy              =     -15.99469311 Ry
     Harris-Foulkes estimate   =     -15.99470823 Ry
     estimated scf accuracy    <       0.00002951 Ry

     iteration #  4     ecut=    30.00 Ry     beta= 0.50
     Davidson diagonalization with overlap
     ethr =  3.69E-07,  avg # of iterations =  2.0

     total cpu time spent up to now is        2.3 secs

     total energy              =     -15.99469725 Ry
     Harris-Foulkes estimate   =     -15.99469804 Ry
     estimated scf accuracy    <       0.00000177 Ry

     iteration #  5     ecut=    30.00 Ry     beta= 0.50
     Davidson diagonalization with overlap
     ethr =  2.21E-08,  avg # of iterations =  1.6

     total cpu time spent up to now is        2.3 secs

     total energy              =     -15.99469730 Ry
     Harris-Foulkes estimate   =     -15.99469738 Ry
     estimated scf accuracy    <       0.00000015 Ry

     iteration #  6     ecut=    30.00 Ry     beta= 0.50
     Davidson diagonalization with overlap
     ethr =  1.88E-09,  avg # of iterations =  2.2

     total cpu time spent up to now is        2.4 secs

     total energy              =     -15.99469734 Ry
     Harris-Foulkes estimate   =     -15.99469735 Ry
     estimated scf accuracy    <       0.00000003 Ry

     iteration #  7     ecut=    30.00 Ry     beta= 0.50
     Davidson diagonalization with overlap
     ethr =  3.58E-10,  avg # of iterations =  1.9

     total cpu time spent up to now is        2.4 secs

     End of self-consistent calculation

          k = 0.0000 0.0000 0.0000 (   561 PWs)   bands (ev):

    -7.0302   5.7314   5.7314   5.7314

          k = 0.1577 0.1577-0.1577 (   580 PWs)   bands (ev):

    -6.3192   0.9978   4.8559   4.8559

          k =-0.3155-0.3155 0.3155 (   580 PWs)   bands (ev):

    -5.0039  -1.9742   4.3445   4.3445

          k = 0.3155 0.0000 0.0000 (   576 PWs)   bands (ev):

    -6.0614   1.0457   3.6767   3.6767

          k =-0.1577-0.4732 0.4732 (   584 PWs)   bands (ev):

    -4.6050  -1.7235   1.9291   3.3190

          k =-0.0000-0.3155 0.3155 (   590 PWs)   bands (ev):

    -5.2093  -0.8460   1.7744   4.2316

          k =-0.6310 0.0000 0.0000 (   588 PWs)   bands (ev):

    -3.2328  -3.2328   2.6407   2.6407

          k =-0.6310 0.3155 0.0000 (   604 PWs)   bands (ev):

    -3.1296  -3.1296   1.7325   1.7325

     highest occupied level (ev):     5.7314

!    total energy              =     -15.99469734 Ry
     Harris-Foulkes estimate   =     -15.99469734 Ry
     estimated scf accuracy    <          4.2E-11 Ry

     The total energy is the sum of the following terms:

     one-electron contribution =       3.79104553 Ry
     hartree contribution      =       1.18350917 Ry
     xc contribution           =      -4.68929242 Ry
     ewald contribution        =     -16.27995961 Ry

     convergence has been achieved in   7 iterations

     Forces acting on atoms (cartesian axes, Ry/au):

     atom    1 type  1   force =    -0.00000000   -0.00000000    0.00000000
     atom    2 type  1   force =     0.00000000    0.00000000   -0.00000000

     Total force =     0.000000     Total SCF correction =     0.000000


     Computing stress (Cartesian axis) and pressure

          total   stress  (Ry/bohr**3)                   (kbar)     P=    3.26
   0.00002218  -0.00000000  -0.00000000          3.26     -0.00     -0.00
  -0.00000000   0.00002218  -0.00000000         -0.00      3.26     -0.00
  -0.00000000  -0.00000000   0.00002218         -0.00     -0.00      3.26


     number of scf cycles    =   4
     number of bfgs steps    =   3

     enthalpy old            =     -15.9938298368 Ry
     enthalpy new            =     -15.9946973389 Ry

     CASE: enthalpy_new < enthalpy_old

     new trust radius        =       0.0047499023 bohr
     new conv_thr            =       0.0000000010 Ry

     new unit-cell volume =    298.00063 a.u.^3 (    44.15914 Ang^3 )
     density =      5.46229 g/cm^3

CELL_PARAMETERS (angstrom)
  -0.000000000   2.805413353   2.805413353
   2.805413353  -0.000000000   2.805413353
   2.805413353   2.805413353  -0.000000000

ATOMIC_POSITIONS (angstrom)
Ge      -0.000000000   0.000000000   0.000000000
Ge       1.402706676   1.402706676   1.402706676


     NEW-OLD atomic charge density approx. for the potential
     extrapolated charge    8.02887, renormalised to    8.00000

     total cpu time spent up to now is        2.5 secs

     Self-consistent Calculation

     iteration #  1     ecut=    30.00 Ry     beta= 0.50
     Davidson diagonalization with overlap
     ethr =  1.00E-06,  avg # of iterations =  2.6

     Threshold (ethr) on eigenvalues was too large:
     Diagonalizing with lowered threshold

     Davidson diagonalization with overlap
     ethr =  6.21E-08,  avg # of iterations =  1.1

     total cpu time spent up to now is        2.6 secs

     total energy              =     -15.99470321 Ry
     Harris-Foulkes estimate   =     -16.00818818 Ry
     estimated scf accuracy    <       0.00000502 Ry

     iteration #  2     ecut=    30.00 Ry     beta= 0.50
     Davidson diagonalization with overlap
     ethr =  6.28E-08,  avg # of iterations =  3.2

     total cpu time spent up to now is        2.7 secs

     total energy              =     -15.99471190 Ry
     Harris-Foulkes estimate   =     -15.99471234 Ry
     estimated scf accuracy    <       0.00000155 Ry

     iteration #  3     ecut=    30.00 Ry     beta= 0.50
     Davidson diagonalization with overlap
     ethr =  1.93E-08,  avg # of iterations =  1.0

     total cpu time spent up to now is        2.7 secs

     total energy              =     -15.99471167 Ry
     Harris-Foulkes estimate   =     -15.99471194 Ry
     estimated scf accuracy    <       0.00000054 Ry

     iteration #  4     ecut=    30.00 Ry     beta= 0.50
     Davidson diagonalization with overlap
     ethr =  6.71E-09,  avg # of iterations =  2.0

     total cpu time spent up to now is        2.8 secs

     total energy              =     -15.99471174 Ry
     Harris-Foulkes estimate   =     -15.99471176 Ry
     estimated scf accuracy    <       0.00000003 Ry

     iteration #  5     ecut=    30.00 Ry     beta= 0.50
     Davidson diagonalization with overlap
     ethr =  3.94E-10,  avg # of iterations =  1.5

     total cpu time spent up to now is        2.8 secs

     total energy              =     -15.99471174 Ry
     Harris-Foulkes estimate   =     -15.99471174 Ry
     estimated scf accuracy    <          2.9E-09 Ry

     iteration #  6     ecut=    30.00 Ry     beta= 0.50
     Davidson diagonalization with overlap
     ethr =  3.59E-11,  avg # of iterations =  2.6

     total cpu time spent up to now is        2.9 secs

     End of self-consistent calculation

          k = 0.0000 0.0000 0.0000 (   561 PWs)   bands (ev):

    -7.0436   5.6884   5.6884   5.6884

          k = 0.1575 0.1575-0.1575 (   580 PWs)   bands (ev):

    -6.3352   0.9604   4.8169   4.8169

          k =-0.3151-0.3151 0.3151 (   580 PWs)   bands (ev):

    -5.0263  -1.9981   4.3073   4.3073

          k = 0.3151 0.0000 0.0000 (   576 PWs)   bands (ev):

    -6.0783   1.0009   3.6435   3.6435

          k =-0.1575-0.4726 0.4726 (   584 PWs)   bands (ev):

    -4.6281  -1.7550   1.9027   3.2869

          k =-0.0000-0.3151 0.3151 (   590 PWs)   bands (ev):

    -5.2298  -0.8812   1.7497   4.1953

          k =-0.6301 0.0000 0.0000 (   588 PWs)   bands (ev):

    -3.2605  -3.2605   2.6115   2.6115

          k =-0.6301 0.3151 0.0000 (   604 PWs)   bands (ev):

    -3.1586  -3.1586   1.7090   1.7090

     highest occupied level (ev):     5.6884

!    total energy              =     -15.99471174 Ry
     Harris-Foulkes estimate   =     -15.99471174 Ry
     estimated scf accuracy    <          5.5E-10 Ry

     The total energy is the sum of the following terms:

     one-electron contribution =       3.76062336 Ry
     hartree contribution      =       1.18738748 Ry
     xc contribution           =      -4.68517580 Ry
     ewald contribution        =     -16.25754679 Ry

     convergence has been achieved in   6 iterations

     Forces acting on atoms (cartesian axes, Ry/au):

     atom    1 type  1   force =     0.00000000    0.00000000    0.00000000
     atom    2 type  1   force =     0.00000000    0.00000000   -0.00000000

     Total force =     0.000000     Total SCF correction =     0.000000


     Computing stress (Cartesian axis) and pressure

          total   stress  (Ry/bohr**3)                   (kbar)     P=    0.20
   0.00000138   0.00000000   0.00000000          0.20      0.00      0.00
   0.00000000   0.00000138   0.00000000          0.00      0.20      0.00
   0.00000000   0.00000000   0.00000138          0.00      0.00      0.20


     bfgs converged in   5 scf cycles and   4 bfgs steps
     (criteria: energy <  1.0E-04 Ry, force <  1.0E-03Ry/Bohr, cell <  5.0E-01kbar)

     End of BFGS Geometry Optimization

     Final enthalpy =     -15.9947117430 Ry
Begin final coordinates
     new unit-cell volume =    298.00063 a.u.^3 (    44.15914 Ang^3 )
     density =      5.46229 g/cm^3

CELL_PARAMETERS (angstrom)
  -0.000000000   2.805413353   2.805413353
   2.805413353  -0.000000000   2.805413353
   2.805413353   2.805413353  -0.000000000

ATOMIC_POSITIONS (angstrom)
Ge      -0.000000000   0.000000000   0.000000000
Ge       1.402706676   1.402706676   1.402706676
End final coordinates



     A final scf calculation at the relaxed structure.
     The G-vectors are recalculated for the final unit cell
     Results may differ from those at the preceding step.

     G-vector sticks info
     --------------------
     sticks:   dense  smooth     PW     G-vecs:    dense   smooth      PW
     Sum         463     463    151                 6615     6615    1211



     bravais-lattice index     =            0
     lattice parameter (alat)  =       6.6812  a.u.
     unit-cell volume          =     298.0006 (a.u.)^3
     number of atoms/cell      =            2
     number of atomic types    =            1
     number of electrons       =         8.00
     number of Kohn-Sham states=            4
     kinetic-energy cutoff     =      30.0000  Ry
     charge density cutoff     =     120.0000  Ry
     convergence threshold     =      1.0E-09
     mixing beta               =       0.5000
     number of iterations used =            8  plain     mixing
     Exchange-correlation      = SLA PZ NOGX NOGC ( 1  1  0  0 0 0)

     celldm(1)=   6.681191  celldm(2)=   0.000000  celldm(3)=   0.000000
     celldm(4)=   0.000000  celldm(5)=   0.000000  celldm(6)=   0.000000

     crystal axes: (cart. coord. in units of alat)
               a(1) = (  -0.000000   0.793491   0.793491 )  
               a(2) = (   0.793491  -0.000000   0.793491 )  
               a(3) = (   0.793491   0.793491  -0.000000 )  

     reciprocal axes: (cart. coord. in units 2 pi/alat)
               b(1) = ( -0.630127  0.630127  0.630127 )  
               b(2) = (  0.630127 -0.630127  0.630127 )  
               b(3) = (  0.630127  0.630127 -0.630127 )  


     PseudoPot. # 1 for Ge read from file:
     /home/modeler/qe_pseudo/Ge.pz-bhs.UPF
     MD5 check sum: 4f8fee77de72fb640d24dcbf01bda005
     Pseudo is Norm-conserving, Zval =  4.0
     Generated by new atomic code, or converted to UPF format
     Using radial grid of  291 points,  2 beta functions with: 
                l(1) =   0
                l(2) =   1

     atomic species   valence    mass     pseudopotential
        Ge             4.00    72.63000     Ge( 1.00)

     48 Sym. Ops., with inversion, found (24 have fractional translation)



   Cartesian axes

     site n.     atom                  positions (alat units)
         1           Ge  tau(   1) = (  -0.0000000   0.0000000   0.0000000  )
         2           Ge  tau(   2) = (   0.3967454   0.3967454   0.3967454  )

     number of k points=     8
                       cart. coord. in units 2pi/alat
        k(    1) = (   0.0000000   0.0000000   0.0000000), wk =   0.0312500
        k(    2) = (   0.1575318   0.1575318  -0.1575318), wk =   0.2500000
        k(    3) = (  -0.3150635  -0.3150635   0.3150635), wk =   0.1250000
        k(    4) = (   0.3150635   0.0000000   0.0000000), wk =   0.1875000
        k(    5) = (  -0.1575318  -0.4725953   0.4725953), wk =   0.7500000
        k(    6) = (  -0.0000000  -0.3150635   0.3150635), wk =   0.3750000
        k(    7) = (  -0.6301271   0.0000000   0.0000000), wk =   0.0937500
        k(    8) = (  -0.6301271   0.3150635   0.0000000), wk =   0.1875000

     Dense  grid:     6615 G-vectors     FFT dimensions: (  32,  32,  32)

     Estimated max dynamical RAM per process >       6.17 MB

     Initial potential from superposition of free atoms

     starting charge    6.99990, renormalised to    8.00000
     Starting wfcs are    8 randomized atomic wfcs

     total cpu time spent up to now is        3.0 secs

     Self-consistent Calculation

     iteration #  1     ecut=    30.00 Ry     beta= 0.50
     Davidson diagonalization with overlap
     ethr =  1.00E-06,  avg # of iterations =  6.0

     total cpu time spent up to now is        3.1 secs

     total energy              =     -15.99661570 Ry
     Harris-Foulkes estimate   =     -16.00019421 Ry
     estimated scf accuracy    <       0.02667566 Ry

     iteration #  2     ecut=    30.00 Ry     beta= 0.50
     Davidson diagonalization with overlap
     ethr =  3.33E-04,  avg # of iterations =  1.0

     total cpu time spent up to now is        3.2 secs

     total energy              =     -15.99547981 Ry
     Harris-Foulkes estimate   =     -15.99665680 Ry
     estimated scf accuracy    <       0.00639409 Ry

     iteration #  3     ecut=    30.00 Ry     beta= 0.50
     Davidson diagonalization with overlap
     ethr =  7.99E-05,  avg # of iterations =  1.0

     total cpu time spent up to now is        3.2 secs

     total energy              =     -15.99553219 Ry
     Harris-Foulkes estimate   =     -15.99553392 Ry
     estimated scf accuracy    <       0.00000382 Ry

     iteration #  4     ecut=    30.00 Ry     beta= 0.50
     Davidson diagonalization with overlap
     ethr =  4.78E-08,  avg # of iterations =  3.9

     total cpu time spent up to now is        3.3 secs

     total energy              =     -15.99554821 Ry
     Harris-Foulkes estimate   =     -15.99554818 Ry
     estimated scf accuracy    <       0.00000027 Ry

     iteration #  5     ecut=    30.00 Ry     beta= 0.50
     Davidson diagonalization with overlap
     ethr =  3.38E-09,  avg # of iterations =  1.5

     total cpu time spent up to now is        3.4 secs

     total energy              =     -15.99554824 Ry
     Harris-Foulkes estimate   =     -15.99554822 Ry
     estimated scf accuracy    <       0.00000005 Ry

     iteration #  6     ecut=    30.00 Ry     beta= 0.50
     Davidson diagonalization with overlap
     ethr =  6.01E-10,  avg # of iterations =  1.8

     total cpu time spent up to now is        3.4 secs

     total energy              =     -15.99554824 Ry
     Harris-Foulkes estimate   =     -15.99554824 Ry
     estimated scf accuracy    <          2.1E-09 Ry

     iteration #  7     ecut=    30.00 Ry     beta= 0.50
     Davidson diagonalization with overlap
     ethr =  2.67E-11,  avg # of iterations =  3.2

     total cpu time spent up to now is        3.5 secs

     End of self-consistent calculation

          k = 0.0000 0.0000 0.0000 (   869 PWs)   bands (ev):

    -7.0445   5.6890   5.6890   5.6890

          k = 0.1575 0.1575-0.1575 (   827 PWs)   bands (ev):

    -6.3363   0.9579   4.8176   4.8176

          k =-0.3151-0.3151 0.3151 (   832 PWs)   bands (ev):

    -5.0280  -1.9995   4.3080   4.3080

          k = 0.3151 0.0000 0.0000 (   833 PWs)   bands (ev):

    -6.0794   0.9969   3.6440   3.6440

          k =-0.1575-0.4726 0.4726 (   822 PWs)   bands (ev):

    -4.6295  -1.7573   1.9026   3.2874

          k =-0.0000-0.3151 0.3151 (   819 PWs)   bands (ev):

    -5.2309  -0.8837   1.7499   4.1960

          k =-0.6301 0.0000 0.0000 (   806 PWs)   bands (ev):

    -3.2623  -3.2623   2.6120   2.6120

          k =-0.6301 0.3151 0.0000 (   848 PWs)   bands (ev):

    -3.1603  -3.1603   1.7093   1.7093

     highest occupied level (ev):     5.6890

!    total energy              =     -15.99554824 Ry
     Harris-Foulkes estimate   =     -15.99554824 Ry
     estimated scf accuracy    <          2.0E-11 Ry

     The total energy is the sum of the following terms:

     one-electron contribution =       3.75949866 Ry
     hartree contribution      =       1.18780123 Ry
     xc contribution           =      -4.68530372 Ry
     ewald contribution        =     -16.25754441 Ry

     convergence has been achieved in   7 iterations

     Forces acting on atoms (cartesian axes, Ry/au):

     atom    1 type  1   force =     0.00000000   -0.00000000    0.00000000
     atom    2 type  1   force =     0.00000000    0.00000000   -0.00000000

     Total force =     0.000000     Total SCF correction =     0.000000


     Computing stress (Cartesian axis) and pressure

          total   stress  (Ry/bohr**3)                   (kbar)     P=    1.73
   0.00001178  -0.00000000  -0.00000000          1.73     -0.00     -0.00
  -0.00000000   0.00001178  -0.00000000         -0.00      1.73     -0.00
  -0.00000000  -0.00000000   0.00001178         -0.00     -0.00      1.73


     init_run     :      0.18s CPU      0.43s WALL (       2 calls)
     electrons    :      2.05s CPU      2.13s WALL (       6 calls)
     update_pot   :      0.20s CPU      0.20s WALL (       4 calls)
     forces       :      0.12s CPU      0.12s WALL (       6 calls)
     stress       :      0.29s CPU      0.29s WALL (       6 calls)

     Called by init_run:
     wfcinit      :      0.07s CPU      0.14s WALL (       2 calls)
     potinit      :      0.02s CPU      0.02s WALL (       2 calls)
     hinit0       :      0.07s CPU      0.23s WALL (       2 calls)

     Called by electrons:
     c_bands      :      1.62s CPU      1.67s WALL (      41 calls)
     sum_band     :      0.32s CPU      0.33s WALL (      41 calls)
     v_of_rho     :      0.06s CPU      0.06s WALL (      45 calls)
     mix_rho      :      0.04s CPU      0.04s WALL (      41 calls)

     Called by c_bands:
     init_us_2    :      0.09s CPU      0.09s WALL (     768 calls)
     cegterg      :      1.54s CPU      1.58s WALL (     328 calls)

     Called by sum_band:

     Called by *egterg:
     h_psi        :      1.34s CPU      1.40s WALL (    1123 calls)
     g_psi        :      0.01s CPU      0.02s WALL (     779 calls)
     cdiaghg      :      0.05s CPU      0.10s WALL (    1059 calls)

     Called by h_psi:
     h_psi:pot    :      1.33s CPU      1.39s WALL (    1123 calls)
     h_psi:calbec :      0.05s CPU      0.07s WALL (    1123 calls)
     vloc_psi     :      1.24s CPU      1.27s WALL (    1123 calls)
     add_vuspsi   :      0.04s CPU      0.04s WALL (    1123 calls)

     General routines
     calbec       :      0.05s CPU      0.08s WALL (    1363 calls)
     fft          :      0.05s CPU      0.20s WALL (     165 calls)
     ffts         :      0.01s CPU      0.01s WALL (      41 calls)
     fftw         :      1.17s CPU      1.20s WALL (    9326 calls)

     Parallel routines

     PWSCF        :      2.87s CPU      3.52s WALL


   This run was terminated on:   6:54:48   7Oct2020            

=------------------------------------------------------------------------------=
   JOB DONE.
=------------------------------------------------------------------------------=
