
     Program PWSCF v.6.4.1 starts on  7Oct2020 at  1:42:36 

     This program is part of the open-source Quantum ESPRESSO suite
     for quantum simulation of materials; please cite
         "P. Giannozzi et al., J. Phys.:Condens. Matter 21 395502 (2009);
         "P. Giannozzi et al., J. Phys.:Condens. Matter 29 465901 (2017);
          URL http://www.quantum-espresso.org", 
     in publications or presentations arising from this work. More details at
     http://www.quantum-espresso.org/quote

     Parallel version (MPI), running on     1 processors

     MPI processes distributed on     1 nodes
     Waiting for input...
     Reading input from standard input
Warning: card &IONS ignored
Warning: card / ignored
Warning: card &CELL ignored
Warning: card / ignored

     Current dimensions of program PWSCF are:
     Max number of different atomic species (ntypx) = 10
     Max number of k-points (npk) =  40000
     Max angular momentum in pseudopotentials (lmaxx) =  3

     Subspace diagonalization in iterative solution of the eigenvalue problem:
     a serial algorithm will be used

     Message from routine setup:
     DEPRECATED: symmetry with ibrav=0, use correct ibrav instead

     G-vector sticks info
     --------------------
     sticks:   dense  smooth     PW     G-vecs:    dense   smooth      PW
     Sum         121     121     55                  893      893     259



     bravais-lattice index     =            0
     lattice parameter (alat)  =       6.6812  a.u.
     unit-cell volume          =     210.8855 (a.u.)^3
     number of atoms/cell      =            2
     number of atomic types    =            1
     number of electrons       =         8.00
     number of Kohn-Sham states=            4
     kinetic-energy cutoff     =      10.0000  Ry
     charge density cutoff     =      40.0000  Ry
     convergence threshold     =      1.0E-07
     mixing beta               =       0.5000
     number of iterations used =            8  plain     mixing
     Exchange-correlation      = SLA PZ NOGX NOGC ( 1  1  0  0 0 0)

     celldm(1)=   6.681191  celldm(2)=   0.000000  celldm(3)=   0.000000
     celldm(4)=   0.000000  celldm(5)=   0.000000  celldm(6)=   0.000000

     crystal axes: (cart. coord. in units of alat)
               a(1) = (   0.000000   0.707107   0.707107 )  
               a(2) = (   0.707107   0.000000   0.707107 )  
               a(3) = (   0.707107   0.707107   0.000000 )  

     reciprocal axes: (cart. coord. in units 2 pi/alat)
               b(1) = ( -0.707107  0.707107  0.707107 )  
               b(2) = (  0.707107 -0.707107  0.707107 )  
               b(3) = (  0.707107  0.707107 -0.707107 )  


     PseudoPot. # 1 for Ge read from file:
     /home/modeler/qe_pseudo/Ge.pz-bhs.UPF
     MD5 check sum: 4f8fee77de72fb640d24dcbf01bda005
     Pseudo is Norm-conserving, Zval =  4.0
     Generated by new atomic code, or converted to UPF format
     Using radial grid of  291 points,  2 beta functions with: 
                l(1) =   0
                l(2) =   1

     atomic species   valence    mass     pseudopotential
        Ge             4.00    72.63000     Ge( 1.00)

      4 Sym. Ops. (no inversion) found



   Cartesian axes

     site n.     atom                  positions (alat units)
         1           Ge  tau(   1) = (   0.0000000   0.0000000   0.0707107  )
         2           Ge  tau(   2) = (   0.3535534   0.3535534   0.3535534  )

     number of k points=    95
                       cart. coord. in units 2pi/alat
        k(    1) = (   0.0000000   0.0000000   0.0000000), wk =   0.0039062
        k(    2) = (   0.0883883   0.0883883  -0.0883883), wk =   0.0156250
        k(    3) = (   0.1767767   0.1767767  -0.1767767), wk =   0.0156250
        k(    4) = (   0.2651650   0.2651650  -0.2651650), wk =   0.0156250
        k(    5) = (  -0.3535534  -0.3535534   0.3535534), wk =   0.0078125
        k(    6) = (   0.1767767   0.0000000   0.0000000), wk =   0.0156250
        k(    7) = (   0.2651650   0.0883883  -0.0883883), wk =   0.0312500
        k(    8) = (   0.3535534   0.1767767  -0.1767767), wk =   0.0312500
        k(    9) = (  -0.2651650  -0.4419417   0.4419417), wk =   0.0312500
        k(   10) = (  -0.1767767  -0.3535534   0.3535534), wk =   0.0312500
        k(   11) = (  -0.0883883  -0.2651650   0.2651650), wk =   0.0312500
        k(   12) = (   0.0000000  -0.1767767   0.1767767), wk =   0.0312500
        k(   13) = (   0.3535534   0.0000000   0.0000000), wk =   0.0156250
        k(   14) = (   0.4419417   0.0883883  -0.0883883), wk =   0.0312500
        k(   15) = (  -0.1767767  -0.5303301   0.5303301), wk =   0.0312500
        k(   16) = (  -0.0883883  -0.4419417   0.4419417), wk =   0.0312500
        k(   17) = (   0.0000000  -0.3535534   0.3535534), wk =   0.0312500
        k(   18) = (   0.5303301   0.0000000   0.0000000), wk =   0.0156250
        k(   19) = (  -0.0883883  -0.6187184   0.6187184), wk =   0.0312500
        k(   20) = (   0.0000000  -0.5303301   0.5303301), wk =   0.0312500
        k(   21) = (  -0.7071068   0.0000000   0.0000000), wk =   0.0078125
        k(   22) = (   0.3535534   0.1767767   0.0000000), wk =   0.0156250
        k(   23) = (  -0.2651650  -0.4419417   0.6187184), wk =   0.0312500
        k(   24) = (  -0.1767767  -0.3535534   0.5303301), wk =   0.0312500
        k(   25) = (  -0.1767767  -0.5303301   0.7071068), wk =   0.0156250
        k(   26) = (  -0.0883883  -0.4419417   0.6187184), wk =   0.0312500
        k(   27) = (   0.0000000  -0.3535534   0.5303301), wk =   0.0312500
        k(   28) = (  -0.7071068   0.1767767   0.0000000), wk =   0.0156250
        k(   29) = (  -0.7071068   0.3535534   0.0000000), wk =   0.0156250
        k(   30) = (   0.0883883  -0.0883883  -0.0883883), wk =   0.0156250
        k(   31) = (   0.1767767  -0.1767767  -0.1767767), wk =   0.0156250
        k(   32) = (   0.2651650  -0.2651650  -0.2651650), wk =   0.0156250
        k(   33) = (  -0.3535534   0.3535534   0.3535534), wk =   0.0078125
        k(   34) = (   0.0000000   0.0000000   0.1767767), wk =   0.0078125
        k(   35) = (   0.0883883  -0.2651650  -0.0883883), wk =   0.0312500
        k(   36) = (  -0.0883883  -0.0883883   0.2651650), wk =   0.0156250
        k(   37) = (   0.0883883  -0.0883883  -0.2651650), wk =   0.0156250
        k(   38) = (   0.1767767  -0.3535534  -0.1767767), wk =   0.0312500
        k(   39) = (  -0.1767767  -0.1767767   0.3535534), wk =   0.0156250
        k(   40) = (   0.1767767  -0.1767767  -0.3535534), wk =   0.0156250
        k(   41) = (  -0.4419417   0.2651650   0.4419417), wk =   0.0312500
        k(   42) = (   0.4419417   0.4419417  -0.2651650), wk =   0.0156250
        k(   43) = (  -0.4419417   0.4419417   0.2651650), wk =   0.0156250
        k(   44) = (  -0.3535534   0.1767767   0.3535534), wk =   0.0312500
        k(   45) = (   0.3535534   0.3535534  -0.1767767), wk =   0.0156250
        k(   46) = (  -0.3535534   0.3535534   0.1767767), wk =   0.0156250
        k(   47) = (  -0.2651650   0.0883883   0.2651650), wk =   0.0312500
        k(   48) = (   0.2651650   0.2651650  -0.0883883), wk =   0.0156250
        k(   49) = (  -0.2651650   0.2651650   0.0883883), wk =   0.0156250
        k(   50) = (   0.1767767   0.1767767   0.0000000), wk =   0.0078125
        k(   51) = (  -0.1767767   0.1767767   0.0000000), wk =   0.0078125
        k(   52) = (   0.0000000   0.0000000   0.3535534), wk =   0.0078125
        k(   53) = (   0.0883883  -0.4419417  -0.0883883), wk =   0.0312500
        k(   54) = (  -0.0883883  -0.0883883   0.4419417), wk =   0.0156250
        k(   55) = (   0.0883883  -0.0883883  -0.4419417), wk =   0.0156250
        k(   56) = (  -0.5303301   0.1767767   0.5303301), wk =   0.0312500
        k(   57) = (   0.5303301   0.5303301  -0.1767767), wk =   0.0156250
        k(   58) = (  -0.5303301   0.5303301   0.1767767), wk =   0.0156250
        k(   59) = (  -0.4419417   0.0883883   0.4419417), wk =   0.0312500
        k(   60) = (   0.4419417   0.4419417  -0.0883883), wk =   0.0156250
        k(   61) = (  -0.4419417   0.4419417   0.0883883), wk =   0.0156250
        k(   62) = (   0.3535534   0.3535534   0.0000000), wk =   0.0078125
        k(   63) = (  -0.3535534   0.3535534   0.0000000), wk =   0.0078125
        k(   64) = (   0.0000000   0.0000000   0.5303301), wk =   0.0078125
        k(   65) = (  -0.6187184   0.0883883   0.6187184), wk =   0.0312500
        k(   66) = (   0.6187184   0.6187184  -0.0883883), wk =   0.0156250
        k(   67) = (  -0.6187184   0.6187184   0.0883883), wk =   0.0156250
        k(   68) = (   0.5303301   0.5303301   0.0000000), wk =   0.0078125
        k(   69) = (  -0.5303301   0.5303301   0.0000000), wk =   0.0078125
        k(   70) = (   0.0000000   0.0000000  -0.7071068), wk =   0.0039062
        k(   71) = (   0.1767767  -0.3535534  -0.0000000), wk =   0.0156250
        k(   72) = (  -0.0000000  -0.1767767   0.3535534), wk =   0.0312500
        k(   73) = (  -0.3535534  -0.0000000   0.1767767), wk =   0.0312500
        k(   74) = (  -0.4419417   0.2651650   0.6187184), wk =   0.0312500
        k(   75) = (   0.6187184   0.4419417  -0.2651650), wk =   0.0312500
        k(   76) = (  -0.6187184   0.4419417   0.2651650), wk =   0.0312500
        k(   77) = (   0.2651650   0.6187184  -0.4419417), wk =   0.0312500
        k(   78) = (   0.2651650  -0.6187184   0.4419417), wk =   0.0312500
        k(   79) = (  -0.3535534   0.1767767   0.5303301), wk =   0.0312500
        k(   80) = (   0.1767767   0.5303301  -0.3535534), wk =   0.0156250
        k(   81) = (   0.1767767  -0.5303301   0.3535534), wk =   0.0156250
        k(   82) = (  -0.5303301   0.1767767   0.7071068), wk =   0.0156250
        k(   83) = (   0.7071068   0.5303301  -0.1767767), wk =   0.0312500
        k(   84) = (   0.1767767   0.7071068  -0.5303301), wk =   0.0312500
        k(   85) = (  -0.4419417   0.0883883   0.6187184), wk =   0.0312500
        k(   86) = (   0.6187184   0.4419417  -0.0883883), wk =   0.0312500
        k(   87) = (  -0.6187184   0.4419417   0.0883883), wk =   0.0312500
        k(   88) = (   0.0883883   0.6187184  -0.4419417), wk =   0.0312500
        k(   89) = (   0.0883883  -0.6187184   0.4419417), wk =   0.0312500
        k(   90) = (   0.5303301   0.3535534  -0.0000000), wk =   0.0156250
        k(   91) = (  -0.5303301   0.3535534   0.0000000), wk =   0.0156250
        k(   92) = (   0.0000000   0.5303301  -0.3535534), wk =   0.0312500
        k(   93) = (   0.0000000  -0.1767767  -0.7071068), wk =   0.0156250
        k(   94) = (   0.7071068  -0.0000000   0.1767767), wk =   0.0156250
        k(   95) = (   0.7071068  -0.0000000   0.3535534), wk =   0.0078125

     Dense  grid:      893 G-vectors     FFT dimensions: (  15,  15,  15)

     Estimated max dynamical RAM per process >       1.39 MB

     Initial potential from superposition of free atoms

     starting charge    6.99990, renormalised to    8.00000
     Starting wfcs are    8 randomized atomic wfcs

     total cpu time spent up to now is        0.1 secs

     Self-consistent Calculation

     iteration #  1     ecut=    10.00 Ry     beta= 0.50
     Davidson diagonalization with overlap
     ethr =  1.00E-02,  avg # of iterations =  1.6

     Threshold (ethr) on eigenvalues was too large:
     Diagonalizing with lowered threshold

     Davidson diagonalization with overlap
     ethr =  2.97E-04,  avg # of iterations =  2.8

     total cpu time spent up to now is        0.3 secs

     total energy              =     -15.80931930 Ry
     Harris-Foulkes estimate   =     -15.81201086 Ry
     estimated scf accuracy    <       0.02644379 Ry

     iteration #  2     ecut=    10.00 Ry     beta= 0.50
     Davidson diagonalization with overlap
     ethr =  3.31E-04,  avg # of iterations =  1.0

     total cpu time spent up to now is        0.3 secs

     total energy              =     -15.80878070 Ry
     Harris-Foulkes estimate   =     -15.80952197 Ry
     estimated scf accuracy    <       0.00596468 Ry

     iteration #  3     ecut=    10.00 Ry     beta= 0.50
     Davidson diagonalization with overlap
     ethr =  7.46E-05,  avg # of iterations =  1.0

     total cpu time spent up to now is        0.4 secs

     total energy              =     -15.80888791 Ry
     Harris-Foulkes estimate   =     -15.80890581 Ry
     estimated scf accuracy    <       0.00003663 Ry

     iteration #  4     ecut=    10.00 Ry     beta= 0.50
     Davidson diagonalization with overlap
     ethr =  4.58E-07,  avg # of iterations =  3.4

     total cpu time spent up to now is        0.5 secs

     total energy              =     -15.80892454 Ry
     Harris-Foulkes estimate   =     -15.80892463 Ry
     estimated scf accuracy    <       0.00000027 Ry

     iteration #  5     ecut=    10.00 Ry     beta= 0.50
     Davidson diagonalization with overlap
     ethr =  3.34E-09,  avg # of iterations =  2.7

     total cpu time spent up to now is        0.6 secs

     End of self-consistent calculation

          k = 0.0000 0.0000 0.0000 (   113 PWs)   bands (ev):

    -5.7907   8.4516  10.2285  11.5128

          k = 0.0884 0.0884-0.0884 (   116 PWs)   bands (ev):

    -5.5544   6.8297   9.2957  10.3913

          k = 0.1768 0.1768-0.1768 (   113 PWs)   bands (ev):

    -4.8348   3.8155   8.3346   9.5150

          k = 0.2652 0.2652-0.2652 (   114 PWs)   bands (ev):

    -3.6478   1.0190   7.7411   9.0161

          k =-0.3536-0.3536 0.3536 (   108 PWs)   bands (ev):

    -2.5764  -0.5948   7.5498   8.8653

          k = 0.1768 0.0000 0.0000 (   117 PWs)   bands (ev):

    -5.4845   7.1720   8.7244   9.5566

          k = 0.2652 0.0884-0.0884 (   115 PWs)   bands (ev):

    -4.9184   4.6654   7.7475   8.9692

          k = 0.3536 0.1768-0.1768 (   112 PWs)   bands (ev):

    -3.8652   1.9095   7.0775   8.0568

          k =-0.2652-0.4419 0.4419 (   112 PWs)   bands (ev):

    -2.5440  -0.2413   6.6382   7.7168

          k =-0.1768-0.3536 0.3536 (   114 PWs)   bands (ev):

    -3.0139   0.4557   6.4082   8.0319

          k =-0.0884-0.2652 0.2652 (   112 PWs)   bands (ev):

    -4.2959   3.0174   6.5691   8.8124

          k = 0.0000-0.1768 0.1768 (   117 PWs)   bands (ev):

    -5.1752   5.9690   7.1891   9.7939

          k = 0.3536 0.0000 0.0000 (   125 PWs)   bands (ev):

    -4.5548   4.6949   7.0522   7.4282

          k = 0.4419 0.0884-0.0884 (   116 PWs)   bands (ev):

    -3.6346   2.5046   6.2580   6.8079

          k =-0.1768-0.5303 0.5303 (   110 PWs)   bands (ev):

    -2.3031   0.4378   5.0548   6.6327

          k =-0.0884-0.4419 0.4419 (   111 PWs)   bands (ev):

    -2.0595   0.2295   4.2456   7.0917

          k = 0.0000-0.3536 0.3536 (   117 PWs)   bands (ev):

    -3.3751   2.3367   4.1704   8.0061

          k = 0.5303 0.0000 0.0000 (   113 PWs)   bands (ev):

    -2.9565   1.8939   6.0078   6.1416

          k =-0.0884-0.6187 0.6187 (   112 PWs)   bands (ev):

    -1.7102   0.2606   4.9481   5.9308

          k = 0.0000-0.5303 0.5303 (   110 PWs)   bands (ev):

    -1.2912   0.0823   3.4795   6.3221

          k =-0.7071 0.0000 0.0000 (   116 PWs)   bands (ev):

    -0.7719  -0.7719   5.6846   5.6846

          k = 0.3536 0.1768 0.0000 (   114 PWs)   bands (ev):

    -4.1685   3.0535   5.9813   8.6017

          k =-0.2652-0.4419 0.6187 (   114 PWs)   bands (ev):

    -2.9545   1.0305   4.9601   7.5864

          k =-0.1768-0.3536 0.5303 (   112 PWs)   bands (ev):

    -1.9213  -0.2398   4.6950   7.0114

          k =-0.1768-0.5303 0.7071 (   107 PWs)   bands (ev):

    -2.5229   1.0806   4.9537   6.2236

          k =-0.0884-0.4419 0.6187 (   108 PWs)   bands (ev):

    -1.1939  -0.2137   3.8999   5.6696

          k = 0.0000-0.3536 0.5303 (   109 PWs)   bands (ev):

    -2.0786   1.0836   3.4496   6.0116

          k =-0.7071 0.1768 0.0000 (   108 PWs)   bands (ev):

    -0.9488  -0.2940   4.6642   4.9129

          k =-0.7071 0.3536 0.0000 (   108 PWs)   bands (ev):

    -1.1162   0.3162   3.6310   4.4485

          k = 0.0884-0.0884-0.0884 (   116 PWs)   bands (ev):

    -5.5682   8.0197   8.1606  10.2216

          k = 0.1768-0.1768-0.1768 (   113 PWs)   bands (ev):

    -4.8970   4.7385   7.6197   9.4780

          k = 0.2652-0.2652-0.2652 (   114 PWs)   bands (ev):

    -3.9046   2.0392   7.2046   9.0531

          k =-0.3536 0.3536 0.3536 (   108 PWs)   bands (ev):

    -3.2274   0.7938   7.0671   8.9280

          k = 0.0000 0.0000 0.1768 (   117 PWs)   bands (ev):

    -5.4833   7.5996   8.4109   9.1914

          k = 0.0884-0.2652-0.0884 (   115 PWs)   bands (ev):

    -4.9661   5.8763   6.9249   8.3864

          k =-0.0884-0.0884 0.2652 (   115 PWs)   bands (ev):

    -4.9307   5.1061   7.6214   8.3349

          k = 0.0884-0.0884-0.2652 (   115 PWs)   bands (ev):

    -4.9497   5.6586   6.9788   8.6041

          k = 0.1768-0.3536-0.1768 (   112 PWs)   bands (ev):

    -4.0419   3.0307   6.2507   7.9554

          k =-0.1768-0.1768 0.3536 (   112 PWs)   bands (ev):

    -3.8998   2.1590   6.7613   7.9618

          k = 0.1768-0.1768-0.3536 (   112 PWs)   bands (ev):

    -4.0194   2.8681   6.6232   7.7553

          k =-0.4419 0.2652 0.4419 (   112 PWs)   bands (ev):

    -3.1111   1.1372   5.7766   7.9642

          k = 0.4419 0.4419-0.2652 (   112 PWs)   bands (ev):

    -2.5832  -0.1411   6.1569   8.0853

          k =-0.4419 0.4419 0.2652 (   112 PWs)   bands (ev):

    -3.1057   1.0855   6.6327   7.0519

          k =-0.3536 0.1768 0.3536 (   114 PWs)   bands (ev):

    -3.3481   1.5347   5.5917   8.3910

          k = 0.3536 0.3536-0.1768 (   114 PWs)   bands (ev):

    -2.9336   0.2960   5.9783   8.6719

          k =-0.3536 0.3536 0.1768 (   114 PWs)   bands (ev):

    -3.3989   1.6279   6.6745   6.9903

          k =-0.2652 0.0884 0.2652 (   112 PWs)   bands (ev):

    -4.3625   3.7840   5.8188   9.1094

          k = 0.2652 0.2652-0.0884 (   112 PWs)   bands (ev):

    -4.2451   2.6702   6.3733   9.6543

          k =-0.2652 0.2652 0.0884 (   112 PWs)   bands (ev):

    -4.4046   4.0142   6.7224   7.5886

          k = 0.1768 0.1768 0.0000 (   117 PWs)   bands (ev):

    -5.1461   5.1156   7.6128  10.7615

          k =-0.1768 0.1768 0.0000 (   117 PWs)   bands (ev):

    -5.2051   7.1748   7.2137   8.1356

          k = 0.0000 0.0000 0.3536 (   125 PWs)   bands (ev):

    -4.5593   5.3593   6.2570   7.3716

          k = 0.0884-0.4419-0.0884 (   116 PWs)   bands (ev):

    -3.7374   3.5007   5.2642   6.7627

          k =-0.0884-0.0884 0.4419 (   116 PWs)   bands (ev):

    -3.6820   3.1954   5.2635   6.8909

          k = 0.0884-0.0884-0.4419 (   116 PWs)   bands (ev):

    -3.7272   3.3846   5.8437   6.2933

          k =-0.5303 0.1768 0.5303 (   110 PWs)   bands (ev):

    -2.6970   1.7868   3.9929   6.7546

          k = 0.5303 0.5303-0.1768 (   110 PWs)   bands (ev):

    -2.3992   0.8635   4.2414   6.9368

          k =-0.5303 0.5303 0.1768 (   110 PWs)   bands (ev):

    -2.7195   1.6396   5.0524   5.8378

          k =-0.4419 0.0884 0.4419 (   111 PWs)   bands (ev):

    -2.4356   1.3248   3.4871   7.2092

          k = 0.4419 0.4419-0.0884 (   111 PWs)   bands (ev):

    -1.8108  -0.0932   3.8250   7.5035

          k =-0.4419 0.4419 0.0884 (   111 PWs)   bands (ev):

    -2.6023   1.6046   4.2371   6.2380

          k = 0.3536 0.3536 0.0000 (   117 PWs)   bands (ev):

    -3.1830   1.4223   4.4032   8.5161

          k =-0.3536 0.3536 0.0000 (   117 PWs)   bands (ev):

    -3.5388   3.3785   4.1828   6.9257

          k = 0.0000 0.0000 0.5303 (   113 PWs)   bands (ev):

    -3.0092   2.3385   5.3264   6.2584

          k =-0.6187 0.0884 0.6187 (   112 PWs)   bands (ev):

    -1.9391   0.7636   4.5968   5.9575

          k = 0.6187 0.6187-0.0884 (   112 PWs)   bands (ev):

    -1.9315   0.9167   4.0851   6.1523

          k =-0.6187 0.6187 0.0884 (   112 PWs)   bands (ev):

    -2.0611   1.0925   5.0833   5.2201

          k = 0.5303 0.5303 0.0000 (   110 PWs)   bands (ev):

    -0.7904  -0.3963   3.0223   6.5833

          k =-0.5303 0.5303 0.0000 (   110 PWs)   bands (ev):

    -1.8369   1.0801   3.7713   5.5516

          k = 0.0000 0.0000-0.7071 (   116 PWs)   bands (ev):

    -1.5251   0.3016   4.9971   5.8818

          k = 0.1768-0.3536-0.0000 (   114 PWs)   bands (ev):

    -4.3079   4.9690   5.6087   6.7094

          k =-0.0000-0.1768 0.3536 (   114 PWs)   bands (ev):

    -4.2426   4.0665   5.5083   7.8187

          k =-0.3536-0.0000 0.1768 (   114 PWs)   bands (ev):

    -4.2394   3.8155   5.6886   8.0036

          k =-0.4419 0.2652 0.6187 (   114 PWs)   bands (ev):

    -3.3251   2.5801   5.0360   6.1482

          k = 0.6187 0.4419-0.2652 (   114 PWs)   bands (ev):

    -3.0921   1.5597   4.8530   7.1404

          k =-0.6187 0.4419 0.2652 (   114 PWs)   bands (ev):

    -3.2461   2.2197   4.7038   6.8842

          k = 0.2652 0.6187-0.4419 (   114 PWs)   bands (ev):

    -3.0658   1.3218   5.4228   6.8303

          k = 0.2652-0.6187 0.4419 (   114 PWs)   bands (ev):

    -3.2344   2.2943   4.2316   7.3751

          k =-0.3536 0.1768 0.5303 (   112 PWs)   bands (ev):

    -2.6086   1.2385   4.7477   6.1953

          k = 0.1768 0.5303-0.3536 (   112 PWs)   bands (ev):

    -1.9643  -0.2464   5.5422   6.1916

          k = 0.1768-0.5303 0.3536 (   112 PWs)   bands (ev):

    -2.5440   1.1968   3.9695   7.1045

          k =-0.5303 0.1768 0.7071 (   107 PWs)   bands (ev):

    -2.8302   2.3768   4.7845   5.2079

          k = 0.7071 0.5303-0.1768 (   107 PWs)   bands (ev):

    -2.7405   2.0300   4.4546   5.8199

          k = 0.1768 0.7071-0.5303 (   107 PWs)   bands (ev):

    -2.6828   1.6340   4.8275   5.8788

          k =-0.4419 0.0884 0.6187 (   108 PWs)   bands (ev):

    -1.8951   1.1671   3.6009   5.2492

          k = 0.6187 0.4419-0.0884 (   108 PWs)   bands (ev):

    -1.4529   0.3088   3.4242   5.7975

          k =-0.6187 0.4419 0.0884 (   108 PWs)   bands (ev):

    -1.9352   1.1966   4.0482   4.8271

          k = 0.0884 0.6187-0.4419 (   108 PWs)   bands (ev):

    -1.3664  -0.0210   4.2843   5.2502

          k = 0.0884-0.6187 0.4419 (   108 PWs)   bands (ev):

    -1.7353   0.7850   3.4543   5.6896

          k = 0.5303 0.3536-0.0000 (   109 PWs)   bands (ev):

    -1.5903   0.0760   3.5102   6.4593

          k =-0.5303 0.3536 0.0000 (   109 PWs)   bands (ev):

    -2.3641   1.9423   3.6838   5.1825

          k = 0.0000 0.5303-0.3536 (   109 PWs)   bands (ev):

    -2.0237   0.8741   3.5839   6.0738

          k = 0.0000-0.1768-0.7071 (   108 PWs)   bands (ev):

    -1.3780   0.4277   4.1022   5.1153

          k = 0.7071-0.0000 0.1768 (   108 PWs)   bands (ev):

    -0.6427  -0.6427   4.8176   4.8176

          k = 0.7071-0.0000 0.3536 (   108 PWs)   bands (ev):

    -0.5153  -0.5153   4.1730   4.1730

     highest occupied level (ev):    11.5128

!    total energy              =     -15.80892461 Ry
     Harris-Foulkes estimate   =     -15.80892462 Ry
     estimated scf accuracy    <       0.00000004 Ry

     The total energy is the sum of the following terms:

     one-electron contribution =       6.56131726 Ry
     hartree contribution      =       0.85092092 Ry
     xc contribution           =      -5.04635347 Ry
     ewald contribution        =     -18.17480933 Ry

     convergence has been achieved in   5 iterations

     Forces acting on atoms (cartesian axes, Ry/au):

     atom    1 type  1   force =     0.00000000    0.00000000   -0.21099939
     atom    2 type  1   force =     0.00000000    0.00000000    0.21099939

     Total force =     0.298398     Total SCF correction =     0.000053


     Computing stress (Cartesian axis) and pressure

          total   stress  (Ry/bohr**3)                   (kbar)     P=  528.61
   0.00386547   0.00229639   0.00000000        568.63    337.81      0.00
   0.00229639   0.00386547   0.00000000        337.81    568.63      0.00
   0.00000000   0.00000000   0.00304931          0.00      0.00    448.57


     init_run     :      0.06s CPU      0.07s WALL (       1 calls)
     electrons    :      0.50s CPU      0.52s WALL (       1 calls)
     forces       :      0.01s CPU      0.01s WALL (       1 calls)
     stress       :      0.03s CPU      0.03s WALL (       1 calls)

     Called by init_run:
     wfcinit      :      0.05s CPU      0.06s WALL (       1 calls)
     potinit      :      0.00s CPU      0.00s WALL (       1 calls)
     hinit0       :      0.01s CPU      0.01s WALL (       1 calls)

     Called by electrons:
     c_bands      :      0.43s CPU      0.45s WALL (       6 calls)
     sum_band     :      0.06s CPU      0.06s WALL (       6 calls)
     v_of_rho     :      0.00s CPU      0.00s WALL (       6 calls)
     mix_rho      :      0.00s CPU      0.00s WALL (       6 calls)

     Called by c_bands:
     init_us_2    :      0.03s CPU      0.03s WALL (    1425 calls)
     cegterg      :      0.40s CPU      0.42s WALL (     570 calls)

     Called by sum_band:

     Called by *egterg:
     h_psi        :      0.31s CPU      0.33s WALL (    1850 calls)
     g_psi        :      0.00s CPU      0.00s WALL (    1185 calls)
     cdiaghg      :      0.06s CPU      0.06s WALL (    1660 calls)

     Called by h_psi:
     h_psi:pot    :      0.31s CPU      0.33s WALL (    1850 calls)
     h_psi:calbec :      0.02s CPU      0.02s WALL (    1850 calls)
     vloc_psi     :      0.27s CPU      0.28s WALL (    1850 calls)
     add_vuspsi   :      0.01s CPU      0.02s WALL (    1850 calls)

     General routines
     calbec       :      0.02s CPU      0.02s WALL (    2325 calls)
     fft          :      0.00s CPU      0.00s WALL (      23 calls)
     ffts         :      0.00s CPU      0.00s WALL (       6 calls)
     fftw         :      0.22s CPU      0.23s WALL (   15716 calls)

     Parallel routines

     PWSCF        :      0.62s CPU      0.66s WALL


   This run was terminated on:   1:42:36   7Oct2020            

=------------------------------------------------------------------------------=
   JOB DONE.
=------------------------------------------------------------------------------=
