
     Program PWSCF v.6.4.1 starts on  7Oct2020 at  2: 2: 3 

     This program is part of the open-source Quantum ESPRESSO suite
     for quantum simulation of materials; please cite
         "P. Giannozzi et al., J. Phys.:Condens. Matter 21 395502 (2009);
         "P. Giannozzi et al., J. Phys.:Condens. Matter 29 465901 (2017);
          URL http://www.quantum-espresso.org", 
     in publications or presentations arising from this work. More details at
     http://www.quantum-espresso.org/quote

     Parallel version (MPI), running on     1 processors

     MPI processes distributed on     1 nodes
     Waiting for input...
     Reading input from standard input
Warning: card &IONS ignored
Warning: card / ignored
Warning: card &CELL ignored
Warning: card / ignored

     Current dimensions of program PWSCF are:
     Max number of different atomic species (ntypx) = 10
     Max number of k-points (npk) =  40000
     Max angular momentum in pseudopotentials (lmaxx) =  3

     Subspace diagonalization in iterative solution of the eigenvalue problem:
     a serial algorithm will be used

     Message from routine setup:
     DEPRECATED: symmetry with ibrav=0, use correct ibrav instead

     G-vector sticks info
     --------------------
     sticks:   dense  smooth     PW     G-vecs:    dense   smooth      PW
     Sum          85      85     37                  459      459     137



     bravais-lattice index     =            0
     lattice parameter (alat)  =       7.5660  a.u.
     unit-cell volume          =     306.2608 (a.u.)^3
     number of atoms/cell      =            2
     number of atomic types    =            1
     number of electrons       =         8.00
     number of Kohn-Sham states=            4
     kinetic-energy cutoff     =       5.0000  Ry
     charge density cutoff     =      20.0000  Ry
     convergence threshold     =      1.0E-07
     mixing beta               =       0.5000
     number of iterations used =            8  plain     mixing
     Exchange-correlation      = SLA PZ NOGX NOGC ( 1  1  0  0 0 0)

     celldm(1)=   7.566043  celldm(2)=   0.000000  celldm(3)=   0.000000
     celldm(4)=   0.000000  celldm(5)=   0.000000  celldm(6)=   0.000000

     crystal axes: (cart. coord. in units of alat)
               a(1) = (   0.000000   0.707107   0.707107 )  
               a(2) = (   0.707107   0.000000   0.707107 )  
               a(3) = (   0.707107   0.707107   0.000000 )  

     reciprocal axes: (cart. coord. in units 2 pi/alat)
               b(1) = ( -0.707107  0.707107  0.707107 )  
               b(2) = (  0.707107 -0.707107  0.707107 )  
               b(3) = (  0.707107  0.707107 -0.707107 )  


     PseudoPot. # 1 for Ge read from file:
     /home/modeler/qe_pseudo/Ge.pz-bhs.UPF
     MD5 check sum: 4f8fee77de72fb640d24dcbf01bda005
     Pseudo is Norm-conserving, Zval =  4.0
     Generated by new atomic code, or converted to UPF format
     Using radial grid of  291 points,  2 beta functions with: 
                l(1) =   0
                l(2) =   1

     atomic species   valence    mass     pseudopotential
        Ge             4.00    72.63000     Ge( 1.00)

     48 Sym. Ops., with inversion, found (24 have fractional translation)



   Cartesian axes

     site n.     atom                  positions (alat units)
         1           Ge  tau(   1) = (   0.0000000   0.0000000   0.0000000  )
         2           Ge  tau(   2) = (   0.3535536   0.3535536   0.3535536  )

     number of k points=     8
                       cart. coord. in units 2pi/alat
        k(    1) = (   0.0000000   0.0000000   0.0000000), wk =   0.0312500
        k(    2) = (   0.1767767   0.1767767  -0.1767767), wk =   0.2500000
        k(    3) = (  -0.3535534  -0.3535534   0.3535534), wk =   0.1250000
        k(    4) = (   0.3535534   0.0000000   0.0000000), wk =   0.1875000
        k(    5) = (  -0.1767767  -0.5303301   0.5303301), wk =   0.7500000
        k(    6) = (   0.0000000  -0.3535534   0.3535534), wk =   0.3750000
        k(    7) = (  -0.7071068   0.0000000   0.0000000), wk =   0.0937500
        k(    8) = (  -0.7071068   0.3535534   0.0000000), wk =   0.1875000

     Dense  grid:      459 G-vectors     FFT dimensions: (  12,  12,  12)

     Estimated max dynamical RAM per process >       0.43 MB

     Initial potential from superposition of free atoms

     starting charge    6.99990, renormalised to    8.00000
     Starting wfcs are    8 randomized atomic wfcs

     total cpu time spent up to now is        0.0 secs

     Self-consistent Calculation

     iteration #  1     ecut=     5.00 Ry     beta= 0.50
     Davidson diagonalization with overlap
     ethr =  1.00E-02,  avg # of iterations =  1.9

     Threshold (ethr) on eigenvalues was too large:
     Diagonalizing with lowered threshold

     Davidson diagonalization with overlap
     ethr =  6.78E-04,  avg # of iterations =  1.6

     total cpu time spent up to now is        0.1 secs

     total energy              =     -15.81602438 Ry
     Harris-Foulkes estimate   =     -15.82199766 Ry
     estimated scf accuracy    <       0.05254900 Ry

     iteration #  2     ecut=     5.00 Ry     beta= 0.50
     Davidson diagonalization with overlap
     ethr =  6.57E-04,  avg # of iterations =  1.0

     total cpu time spent up to now is        0.1 secs

     total energy              =     -15.81533513 Ry
     Harris-Foulkes estimate   =     -15.81665019 Ry
     estimated scf accuracy    <       0.01198114 Ry

     iteration #  3     ecut=     5.00 Ry     beta= 0.50
     Davidson diagonalization with overlap
     ethr =  1.50E-04,  avg # of iterations =  1.0

     total cpu time spent up to now is        0.1 secs

     total energy              =     -15.81567721 Ry
     Harris-Foulkes estimate   =     -15.81572040 Ry
     estimated scf accuracy    <       0.00010974 Ry

     iteration #  4     ecut=     5.00 Ry     beta= 0.50
     Davidson diagonalization with overlap
     ethr =  1.37E-06,  avg # of iterations =  3.1

     total cpu time spent up to now is        0.1 secs

     total energy              =     -15.81576161 Ry
     Harris-Foulkes estimate   =     -15.81576178 Ry
     estimated scf accuracy    <       0.00000034 Ry

     iteration #  5     ecut=     5.00 Ry     beta= 0.50
     Davidson diagonalization with overlap
     ethr =  4.29E-09,  avg # of iterations =  3.1

     total cpu time spent up to now is        0.1 secs

     End of self-consistent calculation

          k = 0.0000 0.0000 0.0000 (    59 PWs)   bands (ev):

    -6.9472   5.3498   5.3498   5.3498

          k = 0.1768 0.1768-0.1768 (    61 PWs)   bands (ev):

    -6.2699   1.0441   4.5257   4.5257

          k =-0.3536-0.3536 0.3536 (    52 PWs)   bands (ev):

    -4.9231  -1.7773   4.0906   4.0906

          k = 0.3536 0.0000 0.0000 (    60 PWs)   bands (ev):

    -5.9780   1.1343   3.4137   3.4137

          k =-0.1768-0.5303 0.5303 (    57 PWs)   bands (ev):

    -4.4773  -1.5425   1.7970   3.0589

          k = 0.0000-0.3536 0.3536 (    59 PWs)   bands (ev):

    -5.1229  -0.6951   1.6204   3.9334

          k =-0.7071 0.0000 0.0000 (    64 PWs)   bands (ev):

    -3.1222  -3.1222   2.3898   2.3898

          k =-0.7071 0.3536 0.0000 (    56 PWs)   bands (ev):

    -2.9555  -2.9555   1.5754   1.5754

     highest occupied level (ev):     5.3498

!    total energy              =     -15.81576185 Ry
     Harris-Foulkes estimate   =     -15.81576185 Ry
     estimated scf accuracy    <       0.00000002 Ry

     The total energy is the sum of the following terms:

     one-electron contribution =       3.79711808 Ry
     hartree contribution      =       1.12307312 Ry
     xc contribution           =      -4.62590406 Ry
     ewald contribution        =     -16.11004900 Ry

     convergence has been achieved in   5 iterations

     Forces acting on atoms (cartesian axes, Ry/au):

     atom    1 type  1   force =     0.00000000    0.00000000    0.00000000
     atom    2 type  1   force =    -0.00000000   -0.00000000   -0.00000000

     Total force =     0.000000     Total SCF correction =     0.000000


     Computing stress (Cartesian axis) and pressure

          total   stress  (Ry/bohr**3)                   (kbar)     P= -156.94
  -0.00106686  -0.00000000  -0.00000000       -156.94     -0.00     -0.00
  -0.00000000  -0.00106686  -0.00000000         -0.00   -156.94     -0.00
  -0.00000000  -0.00000000  -0.00106686         -0.00     -0.00   -156.94


     init_run     :      0.01s CPU      0.01s WALL (       1 calls)
     electrons    :      0.03s CPU      0.03s WALL (       1 calls)
     forces       :      0.00s CPU      0.00s WALL (       1 calls)
     stress       :      0.00s CPU      0.00s WALL (       1 calls)

     Called by init_run:
     wfcinit      :      0.00s CPU      0.00s WALL (       1 calls)
     potinit      :      0.00s CPU      0.00s WALL (       1 calls)
     hinit0       :      0.01s CPU      0.01s WALL (       1 calls)

     Called by electrons:
     c_bands      :      0.02s CPU      0.03s WALL (       6 calls)
     sum_band     :      0.00s CPU      0.00s WALL (       6 calls)
     v_of_rho     :      0.00s CPU      0.00s WALL (       6 calls)
     mix_rho      :      0.00s CPU      0.00s WALL (       6 calls)

     Called by c_bands:
     init_us_2    :      0.00s CPU      0.00s WALL (     120 calls)
     cegterg      :      0.02s CPU      0.02s WALL (      48 calls)

     Called by sum_band:

     Called by *egterg:
     h_psi        :      0.01s CPU      0.02s WALL (     150 calls)
     g_psi        :      0.00s CPU      0.00s WALL (      94 calls)
     cdiaghg      :      0.00s CPU      0.01s WALL (     134 calls)

     Called by h_psi:
     h_psi:pot    :      0.01s CPU      0.02s WALL (     150 calls)
     h_psi:calbec :      0.00s CPU      0.00s WALL (     150 calls)
     vloc_psi     :      0.01s CPU      0.01s WALL (     150 calls)
     add_vuspsi   :      0.00s CPU      0.00s WALL (     150 calls)

     General routines
     calbec       :      0.00s CPU      0.00s WALL (     190 calls)
     fft          :      0.00s CPU      0.00s WALL (      23 calls)
     ffts         :      0.00s CPU      0.00s WALL (       6 calls)
     fftw         :      0.01s CPU      0.01s WALL (    1306 calls)

     Parallel routines

     PWSCF        :      0.07s CPU      0.08s WALL


   This run was terminated on:   2: 2: 3   7Oct2020            

=------------------------------------------------------------------------------=
   JOB DONE.
=------------------------------------------------------------------------------=
