
     Program PWSCF v.6.4.1 starts on  7Oct2020 at  0:38:11 

     This program is part of the open-source Quantum ESPRESSO suite
     for quantum simulation of materials; please cite
         "P. Giannozzi et al., J. Phys.:Condens. Matter 21 395502 (2009);
         "P. Giannozzi et al., J. Phys.:Condens. Matter 29 465901 (2017);
          URL http://www.quantum-espresso.org", 
     in publications or presentations arising from this work. More details at
     http://www.quantum-espresso.org/quote

     Parallel version (MPI), running on     1 processors

     MPI processes distributed on     1 nodes
     Waiting for input...
     Reading input from standard input
Warning: card &IONS ignored
Warning: card / ignored
Warning: card &CELL ignored
Warning: card / ignored

     Current dimensions of program PWSCF are:
     Max number of different atomic species (ntypx) = 10
     Max number of k-points (npk) =  40000
     Max angular momentum in pseudopotentials (lmaxx) =  3

     Subspace diagonalization in iterative solution of the eigenvalue problem:
     a serial algorithm will be used

     Message from routine setup:
     DEPRECATED: symmetry with ibrav=0, use correct ibrav instead

     G-vector sticks info
     --------------------
     sticks:   dense  smooth     PW     G-vecs:    dense   smooth      PW
     Sum         745     745    211                13323    13323    2109



     bravais-lattice index     =            0
     lattice parameter (alat)  =       6.6812  a.u.
     unit-cell volume          =     210.8855 (a.u.)^3
     number of atoms/cell      =            2
     number of atomic types    =            1
     number of electrons       =         8.00
     number of Kohn-Sham states=            4
     kinetic-energy cutoff     =      60.0000  Ry
     charge density cutoff     =     240.0000  Ry
     convergence threshold     =      1.0E-07
     mixing beta               =       0.5000
     number of iterations used =            8  plain     mixing
     Exchange-correlation      = SLA PZ NOGX NOGC ( 1  1  0  0 0 0)

     celldm(1)=   6.681191  celldm(2)=   0.000000  celldm(3)=   0.000000
     celldm(4)=   0.000000  celldm(5)=   0.000000  celldm(6)=   0.000000

     crystal axes: (cart. coord. in units of alat)
               a(1) = (   0.000000   0.707107   0.707107 )  
               a(2) = (   0.707107   0.000000   0.707107 )  
               a(3) = (   0.707107   0.707107   0.000000 )  

     reciprocal axes: (cart. coord. in units 2 pi/alat)
               b(1) = ( -0.707107  0.707107  0.707107 )  
               b(2) = (  0.707107 -0.707107  0.707107 )  
               b(3) = (  0.707107  0.707107 -0.707107 )  


     PseudoPot. # 1 for Ge read from file:
     /home/modeler/qe_pseudo/Ge.pz-bhs.UPF
     MD5 check sum: 4f8fee77de72fb640d24dcbf01bda005
     Pseudo is Norm-conserving, Zval =  4.0
     Generated by new atomic code, or converted to UPF format
     Using radial grid of  291 points,  2 beta functions with: 
                l(1) =   0
                l(2) =   1

     atomic species   valence    mass     pseudopotential
        Ge             4.00    72.63000     Ge( 1.00)

      4 Sym. Ops. (no inversion) found



   Cartesian axes

     site n.     atom                  positions (alat units)
         1           Ge  tau(   1) = (   0.0000000   0.0000000   0.0707107  )
         2           Ge  tau(   2) = (   0.3535534   0.3535534   0.3535534  )

     number of k points=    18
                       cart. coord. in units 2pi/alat
        k(    1) = (   0.0000000   0.0000000   0.0000000), wk =   0.0312500
        k(    2) = (   0.1767767   0.1767767  -0.1767767), wk =   0.1250000
        k(    3) = (  -0.3535534  -0.3535534   0.3535534), wk =   0.0625000
        k(    4) = (   0.3535534   0.0000000   0.0000000), wk =   0.1250000
        k(    5) = (  -0.1767767  -0.5303301   0.5303301), wk =   0.2500000
        k(    6) = (   0.0000000  -0.3535534   0.3535534), wk =   0.2500000
        k(    7) = (  -0.7071068   0.0000000   0.0000000), wk =   0.0625000
        k(    8) = (  -0.7071068   0.3535534   0.0000000), wk =   0.1250000
        k(    9) = (   0.1767767  -0.1767767  -0.1767767), wk =   0.1250000
        k(   10) = (  -0.3535534   0.3535534   0.3535534), wk =   0.0625000
        k(   11) = (   0.0000000   0.0000000   0.3535534), wk =   0.0625000
        k(   12) = (  -0.5303301   0.1767767   0.5303301), wk =   0.2500000
        k(   13) = (   0.5303301   0.5303301  -0.1767767), wk =   0.1250000
        k(   14) = (  -0.5303301   0.5303301   0.1767767), wk =   0.1250000
        k(   15) = (   0.3535534   0.3535534   0.0000000), wk =   0.0625000
        k(   16) = (  -0.3535534   0.3535534   0.0000000), wk =   0.0625000
        k(   17) = (   0.0000000   0.0000000  -0.7071068), wk =   0.0312500
        k(   18) = (   0.7071068  -0.0000000   0.3535534), wk =   0.0625000

     Dense  grid:    13323 G-vectors     FFT dimensions: (  36,  36,  36)

     Estimated max dynamical RAM per process >      11.80 MB

     Initial potential from superposition of free atoms

     starting charge    6.99990, renormalised to    8.00000
     Starting wfcs are    8 randomized atomic wfcs

     total cpu time spent up to now is        0.6 secs

     Self-consistent Calculation

     iteration #  1     ecut=    60.00 Ry     beta= 0.50
     Davidson diagonalization with overlap
     ethr =  1.00E-02,  avg # of iterations =  1.7

     Threshold (ethr) on eigenvalues was too large:
     Diagonalizing with lowered threshold

     Davidson diagonalization with overlap
     ethr =  3.10E-04,  avg # of iterations =  2.8

     total cpu time spent up to now is        1.8 secs

     total energy              =     -15.82408501 Ry
     Harris-Foulkes estimate   =     -15.82875595 Ry
     estimated scf accuracy    <       0.03026326 Ry

     iteration #  2     ecut=    60.00 Ry     beta= 0.50
     Davidson diagonalization with overlap
     ethr =  3.78E-04,  avg # of iterations =  1.0

     total cpu time spent up to now is        2.3 secs

     total energy              =     -15.82324263 Ry
     Harris-Foulkes estimate   =     -15.82439356 Ry
     estimated scf accuracy    <       0.00652188 Ry

     iteration #  3     ecut=    60.00 Ry     beta= 0.50
     Davidson diagonalization with overlap
     ethr =  8.15E-05,  avg # of iterations =  1.0

     total cpu time spent up to now is        2.7 secs

     total energy              =     -15.82342164 Ry
     Harris-Foulkes estimate   =     -15.82344253 Ry
     estimated scf accuracy    <       0.00004769 Ry

     iteration #  4     ecut=    60.00 Ry     beta= 0.50
     Davidson diagonalization with overlap
     ethr =  5.96E-07,  avg # of iterations =  3.2

     total cpu time spent up to now is        3.5 secs

     total energy              =     -15.82346809 Ry
     Harris-Foulkes estimate   =     -15.82346953 Ry
     estimated scf accuracy    <       0.00000290 Ry

     iteration #  5     ecut=    60.00 Ry     beta= 0.50
     Davidson diagonalization with overlap
     ethr =  3.62E-08,  avg # of iterations =  2.3

     total cpu time spent up to now is        4.1 secs

     total energy              =     -15.82346849 Ry
     Harris-Foulkes estimate   =     -15.82346853 Ry
     estimated scf accuracy    <       0.00000015 Ry

     iteration #  6     ecut=    60.00 Ry     beta= 0.50
     Davidson diagonalization with overlap
     ethr =  1.84E-09,  avg # of iterations =  2.3

     total cpu time spent up to now is        4.7 secs

     End of self-consistent calculation

          k = 0.0000 0.0000 0.0000 (  1639 PWs)   bands (ev):

    -5.7934   8.4608  10.2336  11.5157

          k = 0.1768 0.1768-0.1768 (  1642 PWs)   bands (ev):

    -4.8292   3.7983   8.3281   9.5020

          k =-0.3536-0.3536 0.3536 (  1676 PWs)   bands (ev):

    -2.5757  -0.6128   7.5347   8.8465

          k = 0.3536 0.0000 0.0000 (  1636 PWs)   bands (ev):

    -4.5355   4.6981   7.0439   7.4227

          k =-0.1768-0.5303 0.5303 (  1651 PWs)   bands (ev):

    -2.3103   0.4209   5.0330   6.6193

          k = 0.0000-0.3536 0.3536 (  1658 PWs)   bands (ev):

    -3.3730   2.3307   4.1535   8.0016

          k =-0.7071 0.0000 0.0000 (  1660 PWs)   bands (ev):

    -0.7708  -0.7707   5.6711   5.6711

          k =-0.7071 0.3536 0.0000 (  1648 PWs)   bands (ev):

    -1.1288   0.3037   3.6076   4.4289

          k = 0.1768-0.1768-0.1768 (  1642 PWs)   bands (ev):

    -4.8986   4.7168   7.6204   9.4726

          k =-0.3536 0.3536 0.3536 (  1676 PWs)   bands (ev):

    -3.2242   0.7705   7.0524   8.9163

          k = 0.0000 0.0000 0.3536 (  1636 PWs)   bands (ev):

    -4.5449   5.3614   6.2584   7.3556

          k =-0.5303 0.1768 0.5303 (  1651 PWs)   bands (ev):

    -2.7115   1.7723   3.9746   6.7414

          k = 0.5303 0.5303-0.1768 (  1651 PWs)   bands (ev):

    -2.4136   0.8497   4.2237   6.9166

          k =-0.5303 0.5303 0.1768 (  1651 PWs)   bands (ev):

    -2.7285   1.6213   5.0357   5.8268

          k = 0.3536 0.3536 0.0000 (  1658 PWs)   bands (ev):

    -3.1715   1.4157   4.3845   8.5054

          k =-0.3536 0.3536 0.0000 (  1658 PWs)   bands (ev):

    -3.5374   3.3730   4.1690   6.9248

          k = 0.0000 0.0000-0.7071 (  1660 PWs)   bands (ev):

    -1.5209   0.2986   4.9853   5.8618

          k = 0.7071-0.0000 0.3536 (  1648 PWs)   bands (ev):

    -0.5267  -0.5267   4.1505   4.1505

     highest occupied level (ev):    11.5157

!    total energy              =     -15.82346852 Ry
     Harris-Foulkes estimate   =     -15.82346853 Ry
     estimated scf accuracy    <       0.00000003 Ry

     The total energy is the sum of the following terms:

     one-electron contribution =       6.52753366 Ry
     hartree contribution      =       0.88764890 Ry
     xc contribution           =      -5.06384175 Ry
     ewald contribution        =     -18.17480932 Ry

     convergence has been achieved in   6 iterations

     Forces acting on atoms (cartesian axes, Ry/au):

     atom    1 type  1   force =     0.00000000    0.00000000   -0.21723025
     atom    2 type  1   force =     0.00000000    0.00000000    0.21723025

     Total force =     0.307210     Total SCF correction =     0.000029


     Computing stress (Cartesian axis) and pressure

          total   stress  (Ry/bohr**3)                   (kbar)     P=  590.90
   0.00428033   0.00220712   0.00000000        629.66    324.68      0.00
   0.00220712   0.00428033  -0.00000000        324.68    629.66     -0.00
   0.00000000  -0.00000000   0.00348991          0.00     -0.00    513.38


     init_run     :      0.52s CPU      0.53s WALL (       1 calls)
     electrons    :      4.08s CPU      4.15s WALL (       1 calls)
     forces       :      0.03s CPU      0.03s WALL (       1 calls)
     stress       :      0.18s CPU      0.19s WALL (       1 calls)

     Called by init_run:
     wfcinit      :      0.46s CPU      0.47s WALL (       1 calls)
     potinit      :      0.01s CPU      0.01s WALL (       1 calls)
     hinit0       :      0.03s CPU      0.03s WALL (       1 calls)

     Called by electrons:
     c_bands      :      3.34s CPU      3.39s WALL (       7 calls)
     sum_band     :      0.68s CPU      0.69s WALL (       7 calls)
     v_of_rho     :      0.04s CPU      0.04s WALL (       7 calls)
     mix_rho      :      0.02s CPU      0.03s WALL (       7 calls)

     Called by c_bands:
     init_us_2    :      0.15s CPU      0.15s WALL (     306 calls)
     cegterg      :      3.22s CPU      3.27s WALL (     126 calls)

     Called by sum_band:

     Called by *egterg:
     h_psi        :      3.33s CPU      3.38s WALL (     400 calls)
     g_psi        :      0.02s CPU      0.02s WALL (     256 calls)
     cdiaghg      :      0.04s CPU      0.04s WALL (     364 calls)

     Called by h_psi:
     h_psi:pot    :      3.32s CPU      3.36s WALL (     400 calls)
     h_psi:calbec :      0.09s CPU      0.09s WALL (     400 calls)
     vloc_psi     :      3.17s CPU      3.21s WALL (     400 calls)
     add_vuspsi   :      0.06s CPU      0.06s WALL (     400 calls)

     General routines
     calbec       :      0.09s CPU      0.10s WALL (     490 calls)
     fft          :      0.04s CPU      0.05s WALL (      26 calls)
     ffts         :      0.02s CPU      0.02s WALL (       7 calls)
     fftw         :      3.16s CPU      3.21s WALL (    3484 calls)

     Parallel routines

     PWSCF        :      4.85s CPU      4.95s WALL


   This run was terminated on:   0:38:16   7Oct2020            

=------------------------------------------------------------------------------=
   JOB DONE.
=------------------------------------------------------------------------------=
