
     Program PWSCF v.6.4.1 starts on  7Oct2020 at  4: 4:13 

     This program is part of the open-source Quantum ESPRESSO suite
     for quantum simulation of materials; please cite
         "P. Giannozzi et al., J. Phys.:Condens. Matter 21 395502 (2009);
         "P. Giannozzi et al., J. Phys.:Condens. Matter 29 465901 (2017);
          URL http://www.quantum-espresso.org", 
     in publications or presentations arising from this work. More details at
     http://www.quantum-espresso.org/quote

     Parallel version (MPI), running on     1 processors

     MPI processes distributed on     1 nodes
     Waiting for input...
     Reading input from standard input
Warning: card &IONS ignored
Warning: card / ignored
Warning: card &CELL ignored
Warning: card / ignored

     Current dimensions of program PWSCF are:
     Max number of different atomic species (ntypx) = 10
     Max number of k-points (npk) =  40000
     Max angular momentum in pseudopotentials (lmaxx) =  3

     Subspace diagonalization in iterative solution of the eigenvalue problem:
     a serial algorithm will be used

     Message from routine setup:
     DEPRECATED: symmetry with ibrav=0, use correct ibrav instead

     G-vector sticks info
     --------------------
     sticks:   dense  smooth     PW     G-vecs:    dense   smooth      PW
     Sum         649     649    199                10969    10969    1837



     bravais-lattice index     =            0
     lattice parameter (alat)  =       7.6834  a.u.
     unit-cell volume          =     320.7304 (a.u.)^3
     number of atoms/cell      =            2
     number of atomic types    =            1
     number of electrons       =         8.00
     number of Kohn-Sham states=            4
     kinetic-energy cutoff     =      40.0000  Ry
     charge density cutoff     =     160.0000  Ry
     convergence threshold     =      1.0E-07
     mixing beta               =       0.5000
     number of iterations used =            8  plain     mixing
     Exchange-correlation      = SLA PZ NOGX NOGC ( 1  1  0  0 0 0)

     celldm(1)=   7.683369  celldm(2)=   0.000000  celldm(3)=   0.000000
     celldm(4)=   0.000000  celldm(5)=   0.000000  celldm(6)=   0.000000

     crystal axes: (cart. coord. in units of alat)
               a(1) = (   0.000000   0.707107   0.707107 )  
               a(2) = (   0.707107   0.000000   0.707107 )  
               a(3) = (   0.707107   0.707107   0.000000 )  

     reciprocal axes: (cart. coord. in units 2 pi/alat)
               b(1) = ( -0.707107  0.707107  0.707107 )  
               b(2) = (  0.707107 -0.707107  0.707107 )  
               b(3) = (  0.707107  0.707107 -0.707107 )  


     PseudoPot. # 1 for Ge read from file:
     /home/modeler/qe_pseudo/Ge.pz-bhs.UPF
     MD5 check sum: 4f8fee77de72fb640d24dcbf01bda005
     Pseudo is Norm-conserving, Zval =  4.0
     Generated by new atomic code, or converted to UPF format
     Using radial grid of  291 points,  2 beta functions with: 
                l(1) =   0
                l(2) =   1

     atomic species   valence    mass     pseudopotential
        Ge             4.00    72.63000     Ge( 1.00)

     48 Sym. Ops., with inversion, found (24 have fractional translation)



   Cartesian axes

     site n.     atom                  positions (alat units)
         1           Ge  tau(   1) = (   0.0000000   0.0000000   0.0000000  )
         2           Ge  tau(   2) = (   0.3535534   0.3535534   0.3535534  )

     number of k points=    10
                       cart. coord. in units 2pi/alat
        k(    1) = (   0.0000000   0.0000000   0.0000000), wk =   0.0160000
        k(    2) = (   0.1414214   0.1414214  -0.1414214), wk =   0.1280000
        k(    3) = (   0.2828427   0.2828427  -0.2828427), wk =   0.1280000
        k(    4) = (   0.2828427   0.0000000   0.0000000), wk =   0.0960000
        k(    5) = (   0.4242641   0.1414214  -0.1414214), wk =   0.3840000
        k(    6) = (  -0.1414214  -0.4242641   0.4242641), wk =   0.3840000
        k(    7) = (   0.0000000  -0.2828427   0.2828427), wk =   0.1920000
        k(    8) = (   0.5656854   0.0000000   0.0000000), wk =   0.0960000
        k(    9) = (   0.0000000  -0.5656854   0.5656854), wk =   0.1920000
        k(   10) = (  -0.1414214  -0.4242641   0.7071068), wk =   0.3840000

     Dense  grid:    10969 G-vectors     FFT dimensions: (  32,  32,  32)

     Estimated max dynamical RAM per process >       8.69 MB

     Initial potential from superposition of free atoms

     starting charge    6.99990, renormalised to    8.00000
     Starting wfcs are    8 randomized atomic wfcs

     total cpu time spent up to now is        0.1 secs

     Self-consistent Calculation

     iteration #  1     ecut=    40.00 Ry     beta= 0.50
     Davidson diagonalization with overlap
     ethr =  1.00E-02,  avg # of iterations =  1.2

     Threshold (ethr) on eigenvalues was too large:
     Diagonalizing with lowered threshold

     Davidson diagonalization with overlap
     ethr =  3.17E-04,  avg # of iterations =  2.8

     total cpu time spent up to now is        0.3 secs

     total energy              =     -16.00490677 Ry
     Harris-Foulkes estimate   =     -16.00930464 Ry
     estimated scf accuracy    <       0.02670026 Ry

     iteration #  2     ecut=    40.00 Ry     beta= 0.50
     Davidson diagonalization with overlap
     ethr =  3.34E-04,  avg # of iterations =  1.0

     total cpu time spent up to now is        0.3 secs

     total energy              =     -16.00375693 Ry
     Harris-Foulkes estimate   =     -16.00506618 Ry
     estimated scf accuracy    <       0.00625765 Ry

     iteration #  3     ecut=    40.00 Ry     beta= 0.50
     Davidson diagonalization with overlap
     ethr =  7.82E-05,  avg # of iterations =  1.0

     total cpu time spent up to now is        0.4 secs

     total energy              =     -16.00388715 Ry
     Harris-Foulkes estimate   =     -16.00390279 Ry
     estimated scf accuracy    <       0.00002862 Ry

     iteration #  4     ecut=    40.00 Ry     beta= 0.50
     Davidson diagonalization with overlap
     ethr =  3.58E-07,  avg # of iterations =  4.6

     total cpu time spent up to now is        0.5 secs

     total energy              =     -16.00395902 Ry
     Harris-Foulkes estimate   =     -16.00395926 Ry
     estimated scf accuracy    <       0.00000152 Ry

     iteration #  5     ecut=    40.00 Ry     beta= 0.50
     Davidson diagonalization with overlap
     ethr =  1.90E-08,  avg # of iterations =  2.4

     total cpu time spent up to now is        0.6 secs

     total energy              =     -16.00395983 Ry
     Harris-Foulkes estimate   =     -16.00395932 Ry
     estimated scf accuracy    <       0.00000044 Ry

     iteration #  6     ecut=    40.00 Ry     beta= 0.50
     Davidson diagonalization with overlap
     ethr =  5.46E-09,  avg # of iterations =  3.2

     total cpu time spent up to now is        0.7 secs

     total energy              =     -16.00395896 Ry
     Harris-Foulkes estimate   =     -16.00396027 Ry
     estimated scf accuracy    <       0.00000386 Ry

     iteration #  7     ecut=    40.00 Ry     beta= 0.50
     Davidson diagonalization with overlap
     ethr =  5.46E-09,  avg # of iterations =  3.1

     total cpu time spent up to now is        0.8 secs

     End of self-consistent calculation

          k = 0.0000 0.0000 0.0000 (  1363 PWs)   bands (ev):

    -7.2957   4.9006   4.9300   4.9300

          k = 0.1414 0.1414-0.1414 (  1381 PWs)   bands (ev):

    -6.8664   1.1552   4.3215   4.3215

          k = 0.2828 0.2828-0.2828 (  1386 PWs)   bands (ev):

    -5.7677  -1.8644   3.7298   3.7298

          k = 0.2828 0.0000 0.0000 (  1375 PWs)   bands (ev):

    -6.7155   1.0907   3.4556   3.4556

          k = 0.4243 0.1414-0.1414 (  1364 PWs)   bands (ev):

    -5.7698  -1.2965   2.2124   2.9308

          k =-0.1414-0.4243 0.4243 (  1382 PWs)   bands (ev):

    -5.0871  -2.4429   1.4462   3.1804

          k = 0.0000-0.2828 0.2828 (  1372 PWs)   bands (ev):

    -6.1772  -0.5260   2.0027   4.0212

          k = 0.5657 0.0000 0.0000 (  1359 PWs)   bands (ev):

    -5.0061  -2.3079   2.2513   2.2513

          k = 0.0000-0.5657 0.5657 (  1372 PWs)   bands (ev):

    -4.0389  -3.4083   1.0854   2.3589

          k =-0.1414-0.4243 0.7071 (  1364 PWs)   bands (ev):

    -4.6775  -2.6537   1.1321   2.0548

     highest occupied level (ev):     4.9300

!    total energy              =     -16.00395919 Ry
     Harris-Foulkes estimate   =     -16.00395919 Ry
     estimated scf accuracy    <          7.7E-09 Ry

     The total energy is the sum of the following terms:

     one-electron contribution =       3.22410145 Ry
     hartree contribution      =       1.24376665 Ry
     xc contribution           =      -4.60778133 Ry
     ewald contribution        =     -15.86404596 Ry

     convergence has been achieved in   7 iterations

     Forces acting on atoms (cartesian axes, Ry/au):

     atom    1 type  1   force =     0.00000000    0.00000000   -0.00000000
     atom    2 type  1   force =    -0.00000000   -0.00000000    0.00000000

     Total force =     0.000000     Total SCF correction =     0.000000


     Computing stress (Cartesian axis) and pressure

          total   stress  (Ry/bohr**3)                   (kbar)     P=  -38.12
  -0.00025910   0.00000000   0.00000000        -38.12      0.00      0.00
   0.00000000  -0.00025910   0.00000000          0.00    -38.12      0.00
   0.00000000   0.00000000  -0.00025910          0.00      0.00    -38.12


     init_run     :      0.09s CPU      0.09s WALL (       1 calls)
     electrons    :      0.71s CPU      0.73s WALL (       1 calls)
     forces       :      0.01s CPU      0.01s WALL (       1 calls)
     stress       :      0.06s CPU      0.06s WALL (       1 calls)

     Called by init_run:
     wfcinit      :      0.06s CPU      0.06s WALL (       1 calls)
     potinit      :      0.00s CPU      0.00s WALL (       1 calls)
     hinit0       :      0.02s CPU      0.02s WALL (       1 calls)

     Called by electrons:
     c_bands      :      0.58s CPU      0.58s WALL (       8 calls)
     sum_band     :      0.11s CPU      0.11s WALL (       8 calls)
     v_of_rho     :      0.01s CPU      0.02s WALL (       8 calls)
     mix_rho      :      0.01s CPU      0.01s WALL (       8 calls)

     Called by c_bands:
     init_us_2    :      0.05s CPU      0.05s WALL (     190 calls)
     cegterg      :      0.54s CPU      0.55s WALL (      80 calls)

     Called by sum_band:

     Called by *egterg:
     h_psi        :      0.47s CPU      0.47s WALL (     283 calls)
     g_psi        :      0.01s CPU      0.01s WALL (     193 calls)
     cdiaghg      :      0.01s CPU      0.02s WALL (     263 calls)

     Called by h_psi:
     h_psi:pot    :      0.46s CPU      0.47s WALL (     283 calls)
     h_psi:calbec :      0.02s CPU      0.02s WALL (     283 calls)
     vloc_psi     :      0.42s CPU      0.42s WALL (     283 calls)
     add_vuspsi   :      0.02s CPU      0.02s WALL (     283 calls)

     General routines
     calbec       :      0.03s CPU      0.03s WALL (     333 calls)
     fft          :      0.01s CPU      0.01s WALL (      29 calls)
     ffts         :      0.00s CPU      0.00s WALL (       8 calls)
     fftw         :      0.36s CPU      0.36s WALL (    2334 calls)

     Parallel routines

     PWSCF        :      0.90s CPU      0.92s WALL


   This run was terminated on:   4: 4:13   7Oct2020            

=------------------------------------------------------------------------------=
   JOB DONE.
=------------------------------------------------------------------------------=
