
     Program PWSCF v.6.4.1 starts on  7Oct2020 at  2: 2:34 

     This program is part of the open-source Quantum ESPRESSO suite
     for quantum simulation of materials; please cite
         "P. Giannozzi et al., J. Phys.:Condens. Matter 21 395502 (2009);
         "P. Giannozzi et al., J. Phys.:Condens. Matter 29 465901 (2017);
          URL http://www.quantum-espresso.org", 
     in publications or presentations arising from this work. More details at
     http://www.quantum-espresso.org/quote

     Parallel version (MPI), running on     1 processors

     MPI processes distributed on     1 nodes
     Waiting for input...
     Reading input from standard input
Warning: card &IONS ignored
Warning: card / ignored
Warning: card &CELL ignored
Warning: card / ignored

     Current dimensions of program PWSCF are:
     Max number of different atomic species (ntypx) = 10
     Max number of k-points (npk) =  40000
     Max angular momentum in pseudopotentials (lmaxx) =  3

     Subspace diagonalization in iterative solution of the eigenvalue problem:
     a serial algorithm will be used

     Message from routine setup:
     DEPRECATED: symmetry with ibrav=0, use correct ibrav instead

     G-vector sticks info
     --------------------
     sticks:   dense  smooth     PW     G-vecs:    dense   smooth      PW
     Sum        1039    1039    301                22123    22123    3479



     bravais-lattice index     =            0
     lattice parameter (alat)  =       7.6014  a.u.
     unit-cell volume          =     310.5743 (a.u.)^3
     number of atoms/cell      =            2
     number of atomic types    =            1
     number of electrons       =         8.00
     number of Kohn-Sham states=            4
     kinetic-energy cutoff     =      65.0000  Ry
     charge density cutoff     =     260.0000  Ry
     convergence threshold     =      1.0E-07
     mixing beta               =       0.5000
     number of iterations used =            8  plain     mixing
     Exchange-correlation      = SLA PZ NOGX NOGC ( 1  1  0  0 0 0)

     celldm(1)=   7.601398  celldm(2)=   0.000000  celldm(3)=   0.000000
     celldm(4)=   0.000000  celldm(5)=   0.000000  celldm(6)=   0.000000

     crystal axes: (cart. coord. in units of alat)
               a(1) = (   0.000000   0.707107   0.707107 )  
               a(2) = (   0.707107   0.000000   0.707107 )  
               a(3) = (   0.707107   0.707107   0.000000 )  

     reciprocal axes: (cart. coord. in units 2 pi/alat)
               b(1) = ( -0.707107  0.707107  0.707107 )  
               b(2) = (  0.707107 -0.707107  0.707107 )  
               b(3) = (  0.707107  0.707107 -0.707107 )  


     PseudoPot. # 1 for Ge read from file:
     /home/modeler/qe_pseudo/Ge.pz-bhs.UPF
     MD5 check sum: 4f8fee77de72fb640d24dcbf01bda005
     Pseudo is Norm-conserving, Zval =  4.0
     Generated by new atomic code, or converted to UPF format
     Using radial grid of  291 points,  2 beta functions with: 
                l(1) =   0
                l(2) =   1

     atomic species   valence    mass     pseudopotential
        Ge             4.00    72.63000     Ge( 1.00)

     24 Sym. Ops. (no inversion) found



   Cartesian axes

     site n.     atom                  positions (alat units)
         1           Ge  tau(   1) = (   0.0000000   0.0000000   0.0000000  )
         2           Ge  tau(   2) = (   0.3535524   0.3535524   0.3535524  )

     number of k points=     8
                       cart. coord. in units 2pi/alat
        k(    1) = (   0.0000000   0.0000000   0.0000000), wk =   0.0312500
        k(    2) = (   0.1767767   0.1767767  -0.1767767), wk =   0.2500000
        k(    3) = (  -0.3535534  -0.3535534   0.3535534), wk =   0.1250000
        k(    4) = (   0.3535534   0.0000000   0.0000000), wk =   0.1875000
        k(    5) = (  -0.1767767  -0.5303301   0.5303301), wk =   0.7500000
        k(    6) = (   0.0000000  -0.3535534   0.3535534), wk =   0.3750000
        k(    7) = (  -0.7071068   0.0000000   0.0000000), wk =   0.0937500
        k(    8) = (  -0.7071068   0.3535534   0.0000000), wk =   0.1875000

     Dense  grid:    22123 G-vectors     FFT dimensions: (  40,  40,  40)

     Estimated max dynamical RAM per process >      16.93 MB

     Initial potential from superposition of free atoms

     starting charge    6.99990, renormalised to    8.00000
     Starting wfcs are    8 randomized atomic wfcs

     total cpu time spent up to now is        0.3 secs

     Self-consistent Calculation

     iteration #  1     ecut=    65.00 Ry     beta= 0.50
     Davidson diagonalization with overlap
     ethr =  1.00E-02,  avg # of iterations =  1.5

     Threshold (ethr) on eigenvalues was too large:
     Diagonalizing with lowered threshold

     Davidson diagonalization with overlap
     ethr =  3.14E-04,  avg # of iterations =  2.6

     total cpu time spent up to now is        0.8 secs

     total energy              =     -15.99575375 Ry
     Harris-Foulkes estimate   =     -15.99955675 Ry
     estimated scf accuracy    <       0.02727750 Ry

     iteration #  2     ecut=    65.00 Ry     beta= 0.50
     Davidson diagonalization with overlap
     ethr =  3.41E-04,  avg # of iterations =  1.0

     total cpu time spent up to now is        1.0 secs

     total energy              =     -15.99464516 Ry
     Harris-Foulkes estimate   =     -15.99584587 Ry
     estimated scf accuracy    <       0.00646234 Ry

     iteration #  3     ecut=    65.00 Ry     beta= 0.50
     Davidson diagonalization with overlap
     ethr =  8.08E-05,  avg # of iterations =  1.0

     total cpu time spent up to now is        1.2 secs

     total energy              =     -15.99472787 Ry
     Harris-Foulkes estimate   =     -15.99473260 Ry
     estimated scf accuracy    <       0.00000903 Ry

     iteration #  4     ecut=    65.00 Ry     beta= 0.50
     Davidson diagonalization with overlap
     ethr =  1.13E-07,  avg # of iterations =  5.4

     total cpu time spent up to now is        1.7 secs

     total energy              =     -15.99475888 Ry
     Harris-Foulkes estimate   =     -15.99475889 Ry
     estimated scf accuracy    <       0.00000020 Ry

     iteration #  5     ecut=    65.00 Ry     beta= 0.50
     Davidson diagonalization with overlap
     ethr =  2.54E-09,  avg # of iterations =  2.1

     total cpu time spent up to now is        2.0 secs

     End of self-consistent calculation

          k = 0.0000 0.0000 0.0000 (  2733 PWs)   bands (ev):

    -7.1751   5.2703   5.2703   5.2703

          k = 0.1768 0.1768-0.1768 (  2746 PWs)   bands (ev):

    -6.4927   0.5853   4.4377   4.4378

          k =-0.3536-0.3536 0.3536 (  2764 PWs)   bands (ev):

    -5.2477  -2.2375   3.9457   3.9457

          k = 0.3536 0.0000 0.0000 (  2786 PWs)   bands (ev):

    -6.2440   0.5545   3.3199   3.3199

          k =-0.1768-0.5303 0.5303 (  2745 PWs)   bands (ev):

    -4.8558  -2.0687   1.6452   2.9747

          k = 0.0000-0.3536 0.3536 (  2742 PWs)   bands (ev):

    -5.4316  -1.2310   1.5092   3.8419

          k =-0.7071 0.0000 0.0000 (  2778 PWs)   bands (ev):

    -3.5348  -3.5347   2.3273   2.3273

          k =-0.7071 0.3536 0.0000 (  2740 PWs)   bands (ev):

    -3.4448  -3.4447   1.4790   1.4790

     highest occupied level (ev):     5.2703

!    total energy              =     -15.99475891 Ry
     Harris-Foulkes estimate   =     -15.99475892 Ry
     estimated scf accuracy    <       0.00000003 Ry

     The total energy is the sum of the following terms:

     one-electron contribution =       3.45797909 Ry
     hartree contribution      =       1.22713685 Ry
     xc contribution           =      -4.64475631 Ry
     ewald contribution        =     -16.03511854 Ry

     convergence has been achieved in   5 iterations

     Forces acting on atoms (cartesian axes, Ry/au):

     atom    1 type  1   force =    -0.00000000   -0.00000000    0.00000000
     atom    2 type  1   force =     0.00000000   -0.00000000    0.00000000

     Total force =     0.000000     Total SCF correction =     0.000000


     Computing stress (Cartesian axis) and pressure

          total   stress  (Ry/bohr**3)                   (kbar)     P=  -25.26
  -0.00017168   0.00000000   0.00000000        -25.26      0.00      0.00
   0.00000000  -0.00017168   0.00000000          0.00    -25.26      0.00
   0.00000000   0.00000000  -0.00017168          0.00      0.00    -25.26


     init_run     :      0.21s CPU      0.23s WALL (       1 calls)
     electrons    :      1.71s CPU      1.72s WALL (       1 calls)
     forces       :      0.02s CPU      0.02s WALL (       1 calls)
     stress       :      0.10s CPU      0.11s WALL (       1 calls)

     Called by init_run:
     wfcinit      :      0.16s CPU      0.16s WALL (       1 calls)
     potinit      :      0.01s CPU      0.01s WALL (       1 calls)
     hinit0       :      0.03s CPU      0.03s WALL (       1 calls)

     Called by electrons:
     c_bands      :      1.33s CPU      1.33s WALL (       6 calls)
     sum_band     :      0.31s CPU      0.32s WALL (       6 calls)
     v_of_rho     :      0.03s CPU      0.04s WALL (       6 calls)
     mix_rho      :      0.02s CPU      0.02s WALL (       6 calls)

     Called by c_bands:
     init_us_2    :      0.05s CPU      0.06s WALL (     120 calls)
     cegterg      :      1.29s CPU      1.29s WALL (      48 calls)

     Called by sum_band:

     Called by *egterg:
     h_psi        :      1.31s CPU      1.32s WALL (     165 calls)
     g_psi        :      0.01s CPU      0.01s WALL (     109 calls)
     cdiaghg      :      0.01s CPU      0.01s WALL (     149 calls)

     Called by h_psi:
     h_psi:pot    :      1.31s CPU      1.31s WALL (     165 calls)
     h_psi:calbec :      0.03s CPU      0.03s WALL (     165 calls)
     vloc_psi     :      1.25s CPU      1.25s WALL (     165 calls)
     add_vuspsi   :      0.03s CPU      0.03s WALL (     165 calls)

     General routines
     calbec       :      0.04s CPU      0.04s WALL (     205 calls)
     fft          :      0.05s CPU      0.06s WALL (      23 calls)
     ffts         :      0.01s CPU      0.01s WALL (       6 calls)
     fftw         :      1.34s CPU      1.34s WALL (    1382 calls)

     Parallel routines

     PWSCF        :      2.06s CPU      2.10s WALL


   This run was terminated on:   2: 2:36   7Oct2020            

=------------------------------------------------------------------------------=
   JOB DONE.
=------------------------------------------------------------------------------=
